----- GAMESS execution script 'rungms' -----
This job is running on host lcmd44.cluster
under operating system Linux at Mon Oct 5 16:35:29 CEST 2015
Available scratch disk space (Kbyte units) at beginning of the job is
Filesystem      1K-blocks  Used  Available Use% Mounted on
/dev/md1       1714180500 72520 1696691584   1% /scratch
GAMESS temporary binary files will be written to /scratch/petragli/12426.slurm
GAMESS supplementary output files will be written to /scratch/petragli/12426.slurm
Copying input file G2-148.129.inp to your run's scratch directory...
cp G2-148.129.inp /scratch/petragli/12426.slurm/G2-148.129.F05
unset echo
/home/petragli/wb97xddsc/gamess-all/gamess/ddikick.x /home/petragli/wb97xddsc/gamess-all/gamess/gamess.00.x G2-148.129 -ddi 1 1 lcmd44.cluster -scr /scratch/petragli/12426.slurm

 Distributed Data Interface kickoff program.
 Initiating 1 compute processes on 1 nodes to run the following command:
 /home/petragli/wb97xddsc/gamess-all/gamess/gamess.00.x G2-148.129 

          ******************************************************
          *         GAMESS VERSION =  5 DEC 2014 (R1)          *
          *             FROM IOWA STATE UNIVERSITY             *
          * M.W.SCHMIDT, K.K.BALDRIDGE, J.A.BOATZ, S.T.ELBERT, *
          *   M.S.GORDON, J.H.JENSEN, S.KOSEKI, N.MATSUNAGA,   *
          *          K.A.NGUYEN, S.J.SU, T.L.WINDUS,           *
          *       TOGETHER WITH M.DUPUIS, J.A.MONTGOMERY       *
          *         J.COMPUT.CHEM.  14, 1347-1363(1993)        *
          **************** 64 BIT INTEL VERSION ****************

  SINCE 1993, STUDENTS AND POSTDOCS WORKING AT IOWA STATE UNIVERSITY
  AND ALSO IN THEIR VARIOUS JOBS AFTER LEAVING ISU HAVE MADE IMPORTANT
  CONTRIBUTIONS TO THE CODE:
     IVANA ADAMOVIC, CHRISTINE AIKENS, YURI ALEXEEV, POOJA ARORA,
     ANDREY ASADCHEV, ROB BELL, PRADIPTA BANDYOPADHYAY, JONATHAN BENTZ,
     BRETT BODE, KURT BRORSEN, CALEB CARLIN, GALINA CHABAN, WEI CHEN,
     CHEOL HO CHOI, PAUL DAY, ALBERT DEFUSCO, NUWAN DESILVA, TIM DUDLEY,
     DMITRI FEDOROV, GRAHAM FLETCHER, MARK FREITAG, KURT GLAESEMANN,
     DAN KEMP, GRANT MERRILL, NORIYUKI MINEZAWA, JONATHAN MULLIN,
     TAKESHI NAGATA, SEAN NEDD, HEATHER NETZLOFF, BOSILJKA NJEGIC, RYAN OLSON,
     MIKE PAK, SPENCER PRUITT, LUKE ROSKOP, JIM SHOEMAKER, LYUDMILA SLIPCHENKO,
     TONY SMITH, SAROM SOK, JIE SONG, TETSUYA TAKETSUGU, SIMON WEBB,
     PENG XU, SOOHAENG YOO, FEDERICO ZAHARIEV

  ADDITIONAL CODE HAS BEEN PROVIDED BY COLLABORATORS IN OTHER GROUPS:
     IOWA STATE UNIVERSITY:
          JOE IVANIC, AARON WEST, LAIMUTIS BYTAUTAS, KLAUS RUEDENBERG
     UNIVERSITY OF TOKYO: KIMIHIKO HIRAO, TAKAHITO NAKAJIMA,
          TAKAO TSUNEDA, MUNEAKI KAMIYA, SUSUMU YANAGISAWA,
          KIYOSHI YAGI, MAHITO CHIBA, SEIKEN TOKURA, NAOAKI KAWAKAMI
     UNIVERSITY OF AARHUS: FRANK JENSEN
     UNIVERSITY OF IOWA: VISVALDAS KAIRYS, HUI LI
     NATIONAL INST. OF STANDARDS AND TECHNOLOGY: WALT STEVENS, DAVID GARMER
     UNIVERSITY OF PISA: BENEDETTA MENNUCCI, JACOPO TOMASI
     UNIVERSITY OF MEMPHIS: HENRY KURTZ, PRAKASHAN KORAMBATH
     UNIVERSITY OF ALBERTA: TOBY ZENG, MARIUSZ KLOBUKOWSKI
     UNIVERSITY OF NEW ENGLAND: MARK SPACKMAN
     MIE UNIVERSITY: HIROAKI UMEDA
     NAT. INST. OF ADVANCED INDUSTRIAL SCIENCE AND TECHNOLOGY: KAZUO KITAURA
     MICHIGAN STATE UNIVERSITY:
          KAROL KOWALSKI, MARTA WLOCH, JEFFREY GOUR, JESSE LUTZ,
          WEI LI, PIOTR PIECUCH
     UNIVERSITY OF SILESIA: MONIKA MUSIAL, STANISLAW KUCHARSKI
     FACULTES UNIVERSITAIRES NOTRE-DAME DE LA PAIX:
          OLIVIER QUINET, BENOIT CHAMPAGNE
     UNIVERSITY OF CALIFORNIA - SANTA BARBARA: BERNARD KIRTMAN
     INSTITUTE FOR MOLECULAR SCIENCE:
          KAZUYA ISHIMURA, MICHIO KATOUDA, AND SHIGERU NAGASE
     UNIVERSITY OF NOTRE DAME: ANNA POMOGAEVA, DAN CHIPMAN
     KYUSHU UNIVERSITY:
          HARUYUKI NAKANO,
          FENG LONG GU, JACEK KORCHOWIEC, MARCIN MAKOWSKI, AND YURIKO AOKI,
          HIROTOSHI MORI AND EISAKU MIYOSHI
     PENNSYLVANIA STATE UNIVERSITY:
          TZVETELIN IORDANOV, CHET SWALINA, JONATHAN SKONE,
          SHARON HAMMES-SCHIFFER
     WASEDA UNIVERSITY:
          MASATO KOBAYASHI, TOMOKO AKAMA, TSUGUKI TOUMA,
          TAKESHI YOSHIKAWA, YASUHIRO IKABATA, HIROMI NAKAI
     NANJING UNIVERSITY: SHUHUA LI
     UNIVERSITY OF NEBRASKA:
          PEIFENG SU, DEJUN SI, NANDUN THELLAMUREGE, YALI WANG, HUI LI
     UNIVERSITY OF ZURICH: ROBERTO PEVERATI, KIM BALDRIDGE
     N. COPERNICUS UNIVERSITY AND JACKSON STATE UNIVERSITY:
          MARIA BARYSZ
     UNIVERSITY OF COPENHAGEN: CASPER STEINMANN
     TOKYO INSTITUTE OF TECHNOLOGY: HIROYA NAKATA
     NAGOYA UNIVERSITY: YOSHIO NISHIMOTO, STEPHAN IRLE

 EXECUTION OF GAMESS BEGUN Mon Oct  5 16:35:29 2015

            ECHO OF THE FIRST FEW INPUT CARDS -
 INPUT CARD> $DATA                                                                          
 INPUT CARD> Should be setted!                                                              
 INPUT CARD> C1                                                                             
 INPUT CARD> O     8.00     0.027191     1.363691    -0.167516                              
 INPUT CARD> C     6.00    -0.000926     0.036459     0.370128                              
 INPUT CARD> H     1.00     0.859465     1.775647     0.121307                              
 INPUT CARD> H     1.00     0.007371     0.082145     1.470506                              
 INPUT CARD> C     6.00    -1.313275    -0.563514    -0.088979                              
 INPUT CARD> C     6.00     1.200721    -0.764480    -0.104920                              
 INPUT CARD> H     1.00    -1.334005    -0.607253    -1.181009                              
 INPUT CARD> H     1.00     1.202843    -0.807817    -1.197189                              
 INPUT CARD> H     1.00    -2.147812     0.054993     0.247676                              
 INPUT CARD> H     1.00     2.136462    -0.299324     0.223164                              
 INPUT CARD> H     1.00    -1.438709    -1.574275     0.308340                              
 INPUT CARD> H     1.00     1.177736    -1.784436     0.289967                              
 INPUT CARD> $END                                                                           
 INPUT CARD> $DFT NRAD=24 NLEB=110 DDSC=.t. $END                                            
 INPUT CARD> $SCF DIRSCF=.t. $END                                                           
 INPUT CARD> $BASIS NGAUSS=6 GBASIS=N31 $END                                                
 INPUT CARD> $CONTRL DFTTYP=wB97X ICHARG=0 EXETYP=RUN MULT=1 MAXIT=200 SCFTYP=ROHF          
 INPUT CARD>RUNTYP=ENERGY $END                                                              
 INPUT CARD> $SYSTEM MWORDS=8 $END                                                          
    8000000 WORDS OF MEMORY AVAILABLE

     BASIS OPTIONS
     -------------
     GBASIS=N31          IGAUSS=       6      POLAR=NONE    
     NDFUNC=       0     NFFUNC=       0     DIFFSP=       F
     NPFUNC=       0      DIFFS=       F     BASNAM=        


     RUN TITLE
     ---------
  Should be setted!                                                              

 THE POINT GROUP OF THE MOLECULE IS C1      
 THE ORDER OF THE PRINCIPAL AXIS IS     0

 ATOM      ATOMIC                      COORDINATES (BOHR)
           CHARGE         X                   Y                   Z
 O           8.0     0.0513835393        2.5770023219       -0.3165593386
 C           6.0    -0.0017498863        0.0688975198        0.6994405004
 H           1.0     1.6241533460        3.3554862809        0.2292369904
 H           1.0     0.0139291703        0.1552315413        2.7788534033
 C           6.0    -2.4817298965       -1.0648870502       -0.1681459287
 C           6.0     2.2690336777       -1.4446577231       -0.1982700506
 H           1.0    -2.5209039163       -1.1475417752       -2.2317833990
 H           1.0     2.2730436762       -1.5265527782       -2.2623591655
 H           1.0    -4.0587761531        0.1039217012        0.4680397737
 H           1.0     4.0373277632       -0.5656403415        0.4217188103
 H           1.0    -2.7187657861       -2.9749483793        0.5826781111
 H           1.0     2.2255983259       -3.3720950826        0.5479581755

          INTERNUCLEAR DISTANCES (ANGS.)
          ------------------------------

                1 O          2 C          3 H          4 H          5 C     

   1 O       0.0000000    1.4322697 *  0.9725258 *  2.0798724 *  2.3488585 *
   2 C       1.4322697 *  0.0000000    1.9562616 *  1.1013573 *  1.5142677 *
   3 H       0.9725258 *  1.9562616 *  0.0000000    2.3268758 *  3.1994833  
   4 H       2.0798724 *  1.1013573 *  2.3268758 *  0.0000000    2.1431227 *
   5 C       2.3488585 *  1.5142677 *  3.1994833    2.1431227 *  0.0000000  
   6 C       2.4310909 *  1.5202399 *  2.5729126 *  2.1500756 *  2.5220661 *
   7 H       2.6008927 *  2.1441760 *  3.4907807    3.0504247    1.0931022 *
   8 H       2.6754123 *  2.1490334 *  2.9207236 *  3.0557785    2.7601926 *
   9 H       2.5721028 *  2.1504552 *  3.4670354    2.4780767 *  1.0919430 *
  10 H       2.7142723 *  2.1685885 *  2.4385653 *  2.4968799 *  3.4738905  
  11 H       3.3176718    2.1599773 *  4.0667631    2.4870674 *  1.0932675 *
  12 H       3.3828609    2.1705595 *  3.5782585    2.4995102 *  2.7998904 *

                6 C          7 H          8 H          9 H         10 H     

   1 O       2.4310909 *  2.6008927 *  2.6754123 *  2.5721028 *  2.7142723 *
   2 C       1.5202399 *  2.1441760 *  2.1490334 *  2.1504552 *  2.1685885 *
   3 H       2.5729126 *  3.4907807    2.9207236 *  3.4670354    2.4385653 *
   4 H       2.1500756 *  3.0504247    3.0557785    2.4780767 *  2.4968799 *
   5 C       2.5220661 *  1.0931022 *  2.7601926 *  1.0919430 *  3.4738905  
   6 C       0.0000000    2.7581740 *  1.0931304 *  3.4653331    1.0952719 *
   7 H       2.7581740 *  0.0000000    2.5448154 *  1.7725666 *  3.7564163  
   8 H       1.0931304 *  2.5448154 *  0.0000000    3.7495286    1.7741511 *
   9 H       3.4653331    1.7725666 *  3.7495286    0.0000000    4.2989702  
  10 H       1.0952719 *  3.7564163    1.7741511 *  4.2989702    0.0000000  
  11 H       2.7916200 *  1.7788353 *  3.1355817    1.7779262 *  3.7966568  
  12 H       1.0939718 *  3.1398046    1.7793392 *  3.8005996    1.7689477 *

               11 H         12 H     

   1 O       3.3176718    3.3828609  
   2 C       2.1599773 *  2.1705595 *
   3 H       4.0667631    3.5782585  
   4 H       2.4870674 *  2.4995102 *
   5 C       1.0932675 *  2.7998904 *
   6 C       2.7916200 *  1.0939718 *
   7 H       1.7788353 *  3.1398046  
   8 H       3.1355817    1.7793392 *
   9 H       1.7779262 *  3.8005996  
  10 H       3.7966568    1.7689477 *
  11 H       0.0000000    2.6249361 *
  12 H       2.6249361 *  0.0000000  

  * ... LESS THAN  3.000


     ATOMIC BASIS SET
     ----------------
 THE CONTRACTED PRIMITIVE FUNCTIONS HAVE BEEN UNNORMALIZED
 THE CONTRACTED BASIS FUNCTIONS ARE NOW NORMALIZED TO UNITY

  SHELL TYPE  PRIMITIVE        EXPONENT          CONTRACTION COEFFICIENT(S)

 O         

      1   S       1          5484.6716600    0.001831074430
      1   S       2           825.2349460    0.013950172200
      1   S       3           188.0469580    0.068445078098
      1   S       4            52.9645000    0.232714335992
      1   S       5            16.8975704    0.470192897984
      1   S       6             5.7996353    0.358520852987

      2   L       7            15.5396162   -0.110777549525    0.070874268231
      2   L       8             3.5999336   -0.148026262701    0.339752839147
      2   L       9             1.0137618    1.130767015354    0.727158577316

      3   L      10             0.2700058    1.000000000000    1.000000000000

 C         

      4   S      11          3047.5248800    0.001834737132
      4   S      12           457.3695180    0.014037322813
      4   S      13           103.9486850    0.068842622264
      4   S      14            29.2101553    0.232184443216
      4   S      15             9.2866630    0.467941348435
      4   S      16             3.1639270    0.362311985337

      5   L      17             7.8682723   -0.119332419775    0.068999066591
      5   L      18             1.8812885   -0.160854151696    0.316423960957
      5   L      19             0.5442493    1.143456437840    0.744308290898

      6   L      20             0.1687145    1.000000000000    1.000000000000

 H         

      7   S      21            18.7311370    0.033494604338
      7   S      22             2.8253944    0.234726953484
      7   S      23             0.6401217    0.813757326146

      8   S      24             0.1612778    1.000000000000

 H         

      9   S      25            18.7311370    0.033494604338
      9   S      26             2.8253944    0.234726953484
      9   S      27             0.6401217    0.813757326146

     10   S      28             0.1612778    1.000000000000

 C         

     11   S      29          3047.5248800    0.001834737132
     11   S      30           457.3695180    0.014037322813
     11   S      31           103.9486850    0.068842622264
     11   S      32            29.2101553    0.232184443216
     11   S      33             9.2866630    0.467941348435
     11   S      34             3.1639270    0.362311985337

     12   L      35             7.8682723   -0.119332419775    0.068999066591
     12   L      36             1.8812885   -0.160854151696    0.316423960957
     12   L      37             0.5442493    1.143456437840    0.744308290898

     13   L      38             0.1687145    1.000000000000    1.000000000000

 C         

     14   S      39          3047.5248800    0.001834737132
     14   S      40           457.3695180    0.014037322813
     14   S      41           103.9486850    0.068842622264
     14   S      42            29.2101553    0.232184443216
     14   S      43             9.2866630    0.467941348435
     14   S      44             3.1639270    0.362311985337

     15   L      45             7.8682723   -0.119332419775    0.068999066591
     15   L      46             1.8812885   -0.160854151696    0.316423960957
     15   L      47             0.5442493    1.143456437840    0.744308290898

     16   L      48             0.1687145    1.000000000000    1.000000000000

 H         

     17   S      49            18.7311370    0.033494604338
     17   S      50             2.8253944    0.234726953484
     17   S      51             0.6401217    0.813757326146

     18   S      52             0.1612778    1.000000000000

 H         

     19   S      53            18.7311370    0.033494604338
     19   S      54             2.8253944    0.234726953484
     19   S      55             0.6401217    0.813757326146

     20   S      56             0.1612778    1.000000000000

 H         

     21   S      57            18.7311370    0.033494604338
     21   S      58             2.8253944    0.234726953484
     21   S      59             0.6401217    0.813757326146

     22   S      60             0.1612778    1.000000000000

 H         

     23   S      61            18.7311370    0.033494604338
     23   S      62             2.8253944    0.234726953484
     23   S      63             0.6401217    0.813757326146

     24   S      64             0.1612778    1.000000000000

 H         

     25   S      65            18.7311370    0.033494604338
     25   S      66             2.8253944    0.234726953484
     25   S      67             0.6401217    0.813757326146

     26   S      68             0.1612778    1.000000000000

 H         

     27   S      69            18.7311370    0.033494604338
     27   S      70             2.8253944    0.234726953484
     27   S      71             0.6401217    0.813757326146

     28   S      72             0.1612778    1.000000000000

 TOTAL NUMBER OF BASIS SET SHELLS             =   28
 NUMBER OF CARTESIAN GAUSSIAN BASIS FUNCTIONS =   52
 NUMBER OF ELECTRONS                          =   34
 CHARGE OF MOLECULE                           =    0
 SPIN MULTIPLICITY                            =    1
 NUMBER OF OCCUPIED ORBITALS (ALPHA)          =   17
 NUMBER OF OCCUPIED ORBITALS (BETA )          =   17
 TOTAL NUMBER OF ATOMS                        =   12
 THE NUCLEAR REPULSION ENERGY IS      134.9642390575

     LEBEDEV GRID-BASED DFT OPTIONS
     ------------------------------
     DFTTYP=WB97X   
     NRAD  =      24     NLEB  =     110
     NRAD0 =      24     NLEB0 =     110
     SWOFF =    5.00E-03 (PURE SCF -> DFT)
     SWITCH=    3.00E-04 (COARSE -> TIGHT GRID)
     THRESH=    0.00E+00 GTHRE=    1.00E+00

     LC/CAM PARAMETERS
     -----------------
     ALPHAC =.50000  BETAC =.50000  CAMMU = 0.300  CAMVWN =  0.00  CAMLYP =  0.00

 GRIMME'S EMPIRICAL DISPERSION CORRECTION= F
 TURNING ON dDsC DISPERSION CORRECTION

     $CONTRL OPTIONS
     ---------------
 SCFTYP=ROHF         RUNTYP=ENERGY       EXETYP=RUN     
 MPLEVL=       0     CITYP =NONE         CCTYP =NONE         VBTYP =NONE    
 DFTTYP=WB97X        TDDFT =NONE    
 MULT  =       1     ICHARG=       0     NZVAR =       0     COORD =UNIQUE  
 PP    =NONE         RELWFN=NONE         LOCAL =NONE         NUMGRD=       F
 ISPHER=      -1     NOSYM =       0     MAXIT =     200     UNITS =ANGS    
 PLTORB=       F     MOLPLT=       F     AIMPAC=       F     FRIEND=        
 NPRINT=       7     IREST =       0     GEOM  =INPUT   
 NORMF =       0     NORMP =       0     ITOL  =      20     ICUT  =       9
 INTTYP=BEST         GRDTYP=BEST         QMTTOL= 1.0E-06

     $SYSTEM OPTIONS
     ---------------
  REPLICATED MEMORY=     8000000 WORDS (ON EVERY NODE).
 DISTRIBUTED MEMDDI=           0 MILLION WORDS IN AGGREGATE,
 MEMDDI DISTRIBUTED OVER   1 PROCESSORS IS           0 WORDS/PROCESSOR.
 TOTAL MEMORY REQUESTED ON EACH PROCESSOR=     8000000 WORDS.
 TIMLIM=      525600.00 MINUTES, OR     365.0 DAYS.
 PARALL= F  BALTYP=  DLB     KDIAG=    0  COREFL= F
 MXSEQ2=     300 MXSEQ3=     150  mem10=         0

          ----------------
          PROPERTIES INPUT
          ----------------

     MOMENTS            FIELD           POTENTIAL          DENSITY
 IEMOM =       1   IEFLD =       0   IEPOT =       0   IEDEN =       0
 WHERE =COMASS     WHERE =NUCLEI     WHERE =NUCLEI     WHERE =NUCLEI  
 OUTPUT=BOTH       OUTPUT=BOTH       OUTPUT=BOTH       OUTPUT=BOTH    
 IEMINT=       0   IEFINT=       0                     IEDINT=       0
                                                       MORB  =       0
          EXTRAPOLATION IN EFFECT
          DIIS IN EFFECT
 ORBITAL PRINTING OPTION: NPREO=     1    52     2     1

     -------------------------------
     INTEGRAL TRANSFORMATION OPTIONS
     -------------------------------
     NWORD  =            0
     CUTOFF = 1.0E-09     MPTRAN =       0
     DIRTRF =       T     AOINTS =DUP     

          ----------------------
          INTEGRAL INPUT OPTIONS
          ----------------------
 NOPK  =       1 NORDER=       0 SCHWRZ=       T

     ------------------------------------------
     THE POINT GROUP IS C1 , NAXIS= 0, ORDER= 1
     ------------------------------------------

     DIMENSIONS OF THE SYMMETRY SUBSPACES ARE
 A   =   52

 ..... DONE SETTING UP THE RUN .....
 STEP CPU TIME =     0.01 TOTAL CPU TIME =        0.0 (    0.0 MIN)
 TOTAL WALL CLOCK TIME=        0.0 SECONDS, CPU UTILIZATION IS  50.00%
 Tang and Toennies damping function for C6

          ********************
          1 ELECTRON INTEGRALS
          ********************
 ...... END OF ONE-ELECTRON INTEGRALS ......
 STEP CPU TIME =     0.00 TOTAL CPU TIME =        0.0 (    0.0 MIN)
 TOTAL WALL CLOCK TIME=        0.1 SECONDS, CPU UTILIZATION IS  16.67%

          -------------
          GUESS OPTIONS
          -------------
          GUESS =HUCKEL            NORB  =       0          NORDER=       0
          MIX   =       F          PRTMO =       F          PUNMO =       F
          TOLZ  = 1.0E-08          TOLE  = 1.0E-05
          SYMDEN=       F          PURIFY=       F

 INITIAL GUESS ORBITALS GENERATED BY HUCKEL   ROUTINE.
 HUCKEL GUESS REQUIRES     31192 WORDS.

 SYMMETRIES FOR INITIAL GUESS ORBITALS FOLLOW.  ALPHA SET(S).
    17 ORBITALS ARE OCCUPIED (    4 CORE ORBITALS).
     5=A        6=A        7=A        8=A        9=A       10=A       11=A   
    12=A       13=A       14=A       15=A       16=A       17=A       18=A   
    19=A       20=A       21=A       22=A       23=A       24=A       25=A   
    26=A       27=A   

 SYMMETRIES FOR INITIAL GUESS ORBITALS FOLLOW.   BETA SET(S).
    17 ORBITALS ARE OCCUPIED (    4 CORE ORBITALS).
     5=A        6=A        7=A        8=A        9=A       10=A       11=A   
    12=A       13=A       14=A       15=A       16=A       17=A       18=A   
    19=A       20=A       21=A       22=A       23=A       24=A       25=A   
    26=A       27=A   
 ...... END OF INITIAL ORBITAL SELECTION ......
 STEP CPU TIME =     0.01 TOTAL CPU TIME =        0.0 (    0.0 MIN)
 TOTAL WALL CLOCK TIME=        0.1 SECONDS, CPU UTILIZATION IS  33.33%

          ***************************************
          *       dDsC density dependent        *
          *        DISPERSION CORRECTION        *
          *    - Stephan Steinmann   and  -     *
          *    -   Clemence Corminboeuf   -     *
          ***************************************


 =======================================================================
 dDsC PERFORMS THE FOLLOWING CALCULATIONS:
 1. HF/DFT FOR ATOMS
 2. SUPERPOSITION OF ATOMIC DENSITIES
 3. Energy of the Molecule
 4. Classical Hirshfeld dominant analysis
 5. Dispersion correction
 =======================================================================

          -------------------------
          ATOM  1 WITH OWN BASIS
          -------------------------

     ------------------------------------------
     THE POINT GROUP IS C1 , NAXIS= 0, ORDER= 1
     ------------------------------------------

     DIMENSIONS OF THE SYMMETRY SUBSPACES ARE
 A   =    9
 ...... END OF ONE-ELECTRON INTEGRALS ......
 STEP CPU TIME =     0.00 TOTAL CPU TIME =        0.0 (    0.0 MIN)
 TOTAL WALL CLOCK TIME=        0.1 SECONDS, CPU UTILIZATION IS  28.57%

          -------------
          GUESS OPTIONS
          -------------
          GUESS =HUCKEL            NORB  =       0          NORDER=       0
          MIX   =       F          PRTMO =       F          PUNMO =       F
          TOLZ  = 1.0E-08          TOLE  = 1.0E-05
          SYMDEN=       F          PURIFY=       F

 INITIAL GUESS ORBITALS GENERATED BY HUCKEL   ROUTINE.
 HUCKEL GUESS REQUIRES      1489 WORDS.

 SYMMETRIES FOR INITIAL GUESS ORBITALS FOLLOW.  ALPHA SET(S).
     5 ORBITALS ARE OCCUPIED (    1 CORE ORBITALS).
     2=A        3=A        4=A        5=A        6=A        7=A        8=A   
     9=A   

 SYMMETRIES FOR INITIAL GUESS ORBITALS FOLLOW.   BETA SET(S).
     3 ORBITALS ARE OCCUPIED (    1 CORE ORBITALS).
     2=A        3=A        4=A        5=A        6=A        7=A        8=A   
     9=A   
 ...... END OF INITIAL ORBITAL SELECTION ......
 STEP CPU TIME =     0.00 TOTAL CPU TIME =        0.0 (    0.0 MIN)
 TOTAL WALL CLOCK TIME=        0.1 SECONDS, CPU UTILIZATION IS  25.00%

                    ----------------------
                    AO INTEGRAL TECHNOLOGY
                    ----------------------
     S,P,L SHELL ROTATED AXIS INTEGRALS, REPROGRAMMED BY
        KAZUYA ISHIMURA (IMS) AND JOSE SIERRA (SYNSTAR).
     S,P,D,L SHELL ROTATED AXIS INTEGRALS PROGRAMMED BY
        KAZUYA ISHIMURA (INSTITUTE FOR MOLECULAR SCIENCE).
     S,P,D,F,G SHELL TO TOTAL QUARTET ANGULAR MOMENTUM SUM 5,
        ERIC PROGRAM BY GRAHAM FLETCHER (ELORET AND NASA ADVANCED
        SUPERCOMPUTING DIVISION, AMES RESEARCH CENTER).
     S,P,D,F,G,L SHELL GENERAL RYS QUADRATURE PROGRAMMED BY
        MICHEL DUPUIS (PACIFIC NORTHWEST NATIONAL LABORATORY).
  ...... END OF TWO-ELECTRON INTEGRALS .....
 STEP CPU TIME =     0.00 TOTAL CPU TIME =        0.0 (    0.0 MIN)
 TOTAL WALL CLOCK TIME=        0.1 SECONDS, CPU UTILIZATION IS  22.22%
  ...... END OF TWO-ELECTRON INTEGRALS .....
 STEP CPU TIME =     0.00 TOTAL CPU TIME =        0.0 (    0.0 MIN)
 TOTAL WALL CLOCK TIME=        0.1 SECONDS, CPU UTILIZATION IS  22.22%

          ---------------------------
              U-WB97X SCF CALCULATION
          ---------------------------
         DENSITY MATRIX CONVERGENCE THRESHOLD=  2.00E-05
     COARSE -> FINE DFT GRID SWITCH THRESHOLD=  3.00E-04 (SWITCH IN $DFT)
                   HF -> DFT SWITCH THRESHOLD=  5.00E-03 (SWOFF IN $DFT)

 DIRECT SCF CALCULATION, SCHWRZ=T   FDIFF=T

     EXCHANGE FUNCTIONAL   =WB97X     
     CORRELATION FUNCTIONAL=WB97X     
     DFT THRESHOLD         =.379E-06
 FOR AN EULER-MACLAURIN QUADRATURE USING  24 RADIAL POINTS:
 SMALLEST GAUSSIAN PRIMITIVE EXPONENT=        0.2700058226 OF TYPE -P-
 ON ATOM NUMBER   1 HAS RADIAL NORMALIZATION=  1.000866
  LARGEST GAUSSIAN PRIMITIVE EXPONENT=     5484.6716600000 OF TYPE -S-
 ON ATOM NUMBER   1 HAS RADIAL NORMALIZATION=  0.998502

          **************************************************
          *                                                *
          * WARNING: QUESTIONABLE SELECTION OF RADIAL GRID *
          *                                                *
          **************************************************

 THIS RUN HAS REQUESTED NRAD=  24 IN $DFT OR $TDDFT
 ATOM=    1 HAS LARGE EXPONENT=          5484.671659999999974
 RECOMMEND NRAD ABOVE  50 FOR ZETA'S ABOVE 1E+4
 RECOMMEND NRAD ABOVE  75 FOR ZETA'S ABOVE 1E+5
 RECOMMEND NRAD ABOVE 125 FOR ZETA'S ABOVE 1E+6
 ATOM=    1 HAS SMALL EXPONENT=             0.270005822609600
 RECOMMEND NRAD ABOVE  75 FOR ZETA'S BELOW 1E-3
 RECOMMEND NRAD ABOVE 100 FOR ZETA'S BELOW 1E-4
 RECOMMEND NRAD ABOVE 125 FOR ZETA'S BELOW 1E-5
 DFT IS SWITCHED OFF, PERFORMING PURE SCF UNTIL SWOFF THRESHOLD IS REACHED.

                                                                                NONZERO     BLOCKS
 ITER EX      TOTAL ENERGY        E CHANGE  DENSITY CHANGE    DIIS ERROR      INTEGRALS    SKIPPED
   1  0      -74.7477446278   -74.7477446278   0.102551608   0.935069038            213          0
          * * *   INITIATING DIIS PROCEDURE   * * *
   2  1      -74.7791341877    -0.0313895599   0.018798668   0.031623084            213          0
   3  2      -74.7801122547    -0.0009780670   0.008816456   0.013208444            213          0
   4  3      -74.7802593706    -0.0001471159   0.008285329   0.006606126            213          0
   5  4      -74.7803078427    -0.0000484721   0.002084276   0.001590481            213          0
 CONVERGED TO SWOFF, SO DFT CALCULATION IS NOW SWITCHED ON.
          * * *   INITIATING DIIS PROCEDURE   * * *
   6  5      -75.2892863033    -0.5089784605   0.015964939   0.021996853            213          0
   7  6      -75.2894641795    -0.0001778762   0.004749682   0.005512328            213          0
   8  7      -75.2894797170    -0.0000155375   0.001292462   0.001782918            213          0
   9  8      -75.2894810925    -0.0000013755   0.000401019   0.000357296            213          0
  10  9      -75.2894811719    -0.0000000795   0.000087320   0.000061386            213          0
  11 10      -75.2894811749    -0.0000000029   0.000006056   0.000005459            213          0
  12 11      -75.2894811750    -0.0000000001   0.000004477   0.000004252            213          0

          -----------------
          DENSITY CONVERGED
          -----------------
     TIME TO FORM FOCK OPERATORS=       1.1 SECONDS (       0.1 SEC/ITER)
     FOCK TIME ON FIRST ITERATION=       0.0, LAST ITERATION=       0.1
     TIME TO SOLVE SCF EQUATIONS=       0.0 SECONDS (       0.0 SEC/ITER)

 FINAL U-WB97X ENERGY IS      -75.2894811750 AFTER  12 ITERATIONS
 DFT EXCHANGE + CORRELATION ENERGY =        -3.9726276306
 TOTAL ELECTRON NUMBER             =         8.0003290537

          --------------------
          SPIN SZ   =    1.000
          S-SQUARED =    2.003
          --------------------
 ...... END OF UHF CALCULATION ......
 STEP CPU TIME =     1.11 TOTAL CPU TIME =        1.1 (    0.0 MIN)
 TOTAL WALL CLOCK TIME=        1.2 SECONDS, CPU UTILIZATION IS  90.40%

          -------------------------
          ATOM  2 WITH OWN BASIS
          -------------------------

     ------------------------------------------
     THE POINT GROUP IS C1 , NAXIS= 0, ORDER= 1
     ------------------------------------------

     DIMENSIONS OF THE SYMMETRY SUBSPACES ARE
 A   =    9
 ...... END OF ONE-ELECTRON INTEGRALS ......
 STEP CPU TIME =     0.00 TOTAL CPU TIME =        1.1 (    0.0 MIN)
 TOTAL WALL CLOCK TIME=        1.3 SECONDS, CPU UTILIZATION IS  88.98%

          -------------
          GUESS OPTIONS
          -------------
          GUESS =HUCKEL            NORB  =       0          NORDER=       0
          MIX   =       F          PRTMO =       F          PUNMO =       F
          TOLZ  = 1.0E-08          TOLE  = 1.0E-05
          SYMDEN=       F          PURIFY=       F

 INITIAL GUESS ORBITALS GENERATED BY HUCKEL   ROUTINE.
 HUCKEL GUESS REQUIRES      1489 WORDS.

 SYMMETRIES FOR INITIAL GUESS ORBITALS FOLLOW.  ALPHA SET(S).
     4 ORBITALS ARE OCCUPIED (    1 CORE ORBITALS).
     2=A        3=A        4=A        5=A        6=A        7=A        8=A   
     9=A   

 SYMMETRIES FOR INITIAL GUESS ORBITALS FOLLOW.   BETA SET(S).
     2 ORBITALS ARE OCCUPIED (    1 CORE ORBITALS).
     2=A        3=A        4=A        5=A        6=A        7=A        8=A   
     9=A   
 ...... END OF INITIAL ORBITAL SELECTION ......
 STEP CPU TIME =     0.01 TOTAL CPU TIME =        1.1 (    0.0 MIN)
 TOTAL WALL CLOCK TIME=        1.3 SECONDS, CPU UTILIZATION IS  89.06%
  ...... END OF TWO-ELECTRON INTEGRALS .....
 STEP CPU TIME =     0.00 TOTAL CPU TIME =        1.1 (    0.0 MIN)
 TOTAL WALL CLOCK TIME=        1.3 SECONDS, CPU UTILIZATION IS  89.06%
  ...... END OF TWO-ELECTRON INTEGRALS .....
 STEP CPU TIME =     0.00 TOTAL CPU TIME =        1.1 (    0.0 MIN)
 TOTAL WALL CLOCK TIME=        1.3 SECONDS, CPU UTILIZATION IS  89.06%

          ---------------------------
              U-WB97X SCF CALCULATION
          ---------------------------
         DENSITY MATRIX CONVERGENCE THRESHOLD=  2.00E-05
     COARSE -> FINE DFT GRID SWITCH THRESHOLD=  3.00E-04 (SWITCH IN $DFT)
                   HF -> DFT SWITCH THRESHOLD=  5.00E-03 (SWOFF IN $DFT)

 DIRECT SCF CALCULATION, SCHWRZ=T   FDIFF=T
 DFT IS SWITCHED OFF, PERFORMING PURE SCF UNTIL SWOFF THRESHOLD IS REACHED.

                                                                                NONZERO     BLOCKS
 ITER EX      TOTAL ENERGY        E CHANGE  DENSITY CHANGE    DIIS ERROR      INTEGRALS    SKIPPED
   1  0      -37.6441520045   -37.6441520045   0.238838377   0.547002967            213          0
          * * *   INITIATING DIIS PROCEDURE   * * *
   2  1      -37.6777870129    -0.0336350084   0.009332375   0.012607298            213          0
   3  2      -37.6778282687    -0.0000412557   0.004687130   0.002615432            213          0
 CONVERGED TO SWOFF, SO DFT CALCULATION IS NOW SWITCHED ON.
          * * *   INITIATING DIIS PROCEDURE   * * *
   4  3      -38.0032604044    -0.3254321358   0.025527518   0.017903814            213          0
   5  4      -38.0035524156    -0.0002920112   0.012829340   0.006169998            213          0
   6  5      -38.0035901323    -0.0000377167   0.002438237   0.001088389            213          0
   7  6      -38.0035911769    -0.0000010446   0.000056842   0.000024882            213          0
   8  7      -38.0035911776    -0.0000000007   0.000008327   0.000005692            213          0
   9  8      -38.0035911779    -0.0000000002   0.000007225   0.000005631            213          0

          -----------------
          DENSITY CONVERGED
          -----------------
     TIME TO FORM FOCK OPERATORS=       0.9 SECONDS (       0.1 SEC/ITER)
     FOCK TIME ON FIRST ITERATION=       0.0, LAST ITERATION=       0.2
     TIME TO SOLVE SCF EQUATIONS=       0.0 SECONDS (       0.0 SEC/ITER)

 FINAL U-WB97X ENERGY IS      -38.0035911779 AFTER   9 ITERATIONS
 DFT EXCHANGE + CORRELATION ENERGY =        -2.4009032471
 TOTAL ELECTRON NUMBER             =         6.0001842215

          --------------------
          SPIN SZ   =    1.000
          S-SQUARED =    2.004
          --------------------
 ...... END OF UHF CALCULATION ......
 STEP CPU TIME =     0.89 TOTAL CPU TIME =        2.0 (    0.0 MIN)
 TOTAL WALL CLOCK TIME=        2.2 SECONDS, CPU UTILIZATION IS  92.69%

          -------------------------
          ATOM  3 WITH OWN BASIS
          -------------------------

     ------------------------------------------
     THE POINT GROUP IS C1 , NAXIS= 0, ORDER= 1
     ------------------------------------------

     DIMENSIONS OF THE SYMMETRY SUBSPACES ARE
 A   =    2
 ...... END OF ONE-ELECTRON INTEGRALS ......
 STEP CPU TIME =     0.00 TOTAL CPU TIME =        2.0 (    0.0 MIN)
 TOTAL WALL CLOCK TIME=        2.2 SECONDS, CPU UTILIZATION IS  91.44%

          -------------
          GUESS OPTIONS
          -------------
          GUESS =HUCKEL            NORB  =       0          NORDER=       0
          MIX   =       F          PRTMO =       F          PUNMO =       F
          TOLZ  = 1.0E-08          TOLE  = 1.0E-05
          SYMDEN=       F          PURIFY=       F

 INITIAL GUESS ORBITALS GENERATED BY HUCKEL   ROUTINE.
 HUCKEL GUESS REQUIRES       689 WORDS.

 SYMMETRIES FOR INITIAL GUESS ORBITALS FOLLOW.  ALPHA SET(S).
     1 ORBITALS ARE OCCUPIED (    0 CORE ORBITALS).
     1=A        2=A   
 ...... END OF INITIAL ORBITAL SELECTION ......
 STEP CPU TIME =     0.00 TOTAL CPU TIME =        2.0 (    0.0 MIN)
 TOTAL WALL CLOCK TIME=        2.2 SECONDS, CPU UTILIZATION IS  91.03%
  ...... END OF TWO-ELECTRON INTEGRALS .....
 STEP CPU TIME =     0.00 TOTAL CPU TIME =        2.0 (    0.0 MIN)
 TOTAL WALL CLOCK TIME=        2.2 SECONDS, CPU UTILIZATION IS  91.03%
  ...... END OF TWO-ELECTRON INTEGRALS .....
 STEP CPU TIME =     0.00 TOTAL CPU TIME =        2.0 (    0.0 MIN)
 TOTAL WALL CLOCK TIME=        2.2 SECONDS, CPU UTILIZATION IS  91.03%

          ---------------------------
              U-WB97X SCF CALCULATION
          ---------------------------
         DENSITY MATRIX CONVERGENCE THRESHOLD=  2.00E-05
     COARSE -> FINE DFT GRID SWITCH THRESHOLD=  3.00E-04 (SWITCH IN $DFT)
                   HF -> DFT SWITCH THRESHOLD=  5.00E-03 (SWOFF IN $DFT)

 DIRECT SCF CALCULATION, SCHWRZ=T   FDIFF=T
 DFT IS SWITCHED OFF, PERFORMING PURE SCF UNTIL SWOFF THRESHOLD IS REACHED.

                                                                                NONZERO     BLOCKS
 ITER EX      TOTAL ENERGY        E CHANGE  DENSITY CHANGE    DIIS ERROR      INTEGRALS    SKIPPED
          * * *   INITIATING DIIS PROCEDURE   * * *
   1  0       -0.4641827651    -0.4641827651   0.178441695   0.177483467              6          0
   2  1       -0.4947088078    -0.0305260427   0.089352122   0.058032615              6          0
   3  2       -0.4982329092    -0.0035241014   0.000000000   0.000000000              6          0
 CONVERGED TO SWOFF, SO DFT CALCULATION IS NOW SWITCHED ON.
          * * *   INITIATING DIIS PROCEDURE   * * *
   4  3                 NaN              NaN   0.010699435           NaN              6          0
   5  4                 NaN              NaN   1.750011501           NaN              6          0
   6  5                 NaN              NaN   0.000000000           NaN              6          0
   7  6                 NaN              NaN   0.000000000           NaN              0          6

          -----------------
          DENSITY CONVERGED
          -----------------
     TIME TO FORM FOCK OPERATORS=       0.6 SECONDS (       0.1 SEC/ITER)
     FOCK TIME ON FIRST ITERATION=       0.0, LAST ITERATION=       0.1
     TIME TO SOLVE SCF EQUATIONS=       0.0 SECONDS (       0.0 SEC/ITER)

 FINAL U-WB97X ENERGY IS                 NaN AFTER   7 ITERATIONS
 DFT EXCHANGE + CORRELATION ENERGY =                  NaN
 TOTAL ELECTRON NUMBER             =         1.0000230540

          --------------------
          SPIN SZ   =    0.500
          S-SQUARED =    0.750
          --------------------
 ...... END OF UHF CALCULATION ......
 STEP CPU TIME =     0.59 TOTAL CPU TIME =        2.6 (    0.0 MIN)
 TOTAL WALL CLOCK TIME=        2.8 SECONDS, CPU UTILIZATION IS  92.58%

          -------------------------
          ATOM  4 WITH OWN BASIS
          -------------------------

          -------------------------
          ATOM  5 WITH OWN BASIS
          -------------------------

          -------------------------
          ATOM  6 WITH OWN BASIS
          -------------------------

          -------------------------
          ATOM  7 WITH OWN BASIS
          -------------------------

          -------------------------
          ATOM  8 WITH OWN BASIS
          -------------------------

          -------------------------
          ATOM  9 WITH OWN BASIS
          -------------------------

          -------------------------
          ATOM 10 WITH OWN BASIS
          -------------------------

          -------------------------
          ATOM 11 WITH OWN BASIS
          -------------------------

          -------------------------
          ATOM 12 WITH OWN BASIS
          -------------------------

     ------------------------------------------
     THE POINT GROUP IS C1 , NAXIS= 0, ORDER= 1
     ------------------------------------------

     DIMENSIONS OF THE SYMMETRY SUBSPACES ARE
 A   =   52
 STEP CPU TIME =     0.00 TOTAL CPU TIME =        2.6 (    0.0 MIN)
 TOTAL WALL CLOCK TIME=        2.9 SECONDS, CPU UTILIZATION IS  91.29%

                       **********************
                       END OF SAD PREPARATION
                       **********************


          ********************
          1 ELECTRON INTEGRALS
          ********************
 ...... END OF ONE-ELECTRON INTEGRALS ......
 STEP CPU TIME =     0.01 TOTAL CPU TIME =        2.6 (    0.0 MIN)
 TOTAL WALL CLOCK TIME=        2.9 SECONDS, CPU UTILIZATION IS  91.64%

          -------------
          GUESS OPTIONS
          -------------
          GUESS =HUCKEL            NORB  =       0          NORDER=       0
          MIX   =       F          PRTMO =       F          PUNMO =       F
          TOLZ  = 1.0E-08          TOLE  = 1.0E-05
          SYMDEN=       F          PURIFY=       F

 INITIAL GUESS ORBITALS GENERATED BY HUCKEL   ROUTINE.
 HUCKEL GUESS REQUIRES     31192 WORDS.

 SYMMETRIES FOR INITIAL GUESS ORBITALS FOLLOW.  ALPHA SET(S).
    17 ORBITALS ARE OCCUPIED (    4 CORE ORBITALS).
     5=A        6=A        7=A        8=A        9=A       10=A       11=A   
    12=A       13=A       14=A       15=A       16=A       17=A       18=A   
    19=A       20=A       21=A       22=A       23=A       24=A       25=A   
    26=A       27=A   

 SYMMETRIES FOR INITIAL GUESS ORBITALS FOLLOW.   BETA SET(S).
    17 ORBITALS ARE OCCUPIED (    4 CORE ORBITALS).
     5=A        6=A        7=A        8=A        9=A       10=A       11=A   
    12=A       13=A       14=A       15=A       16=A       17=A       18=A   
    19=A       20=A       21=A       22=A       23=A       24=A       25=A   
    26=A       27=A   
 ...... END OF INITIAL ORBITAL SELECTION ......
 STEP CPU TIME =     0.00 TOTAL CPU TIME =        2.6 (    0.0 MIN)
 TOTAL WALL CLOCK TIME=        2.9 SECONDS, CPU UTILIZATION IS  91.64%

          --------------------------------
          2 ELECTRON LC EXCHANGE INTEGRALS
          --------------------------------

 DIRECT SCF METHOD SKIPS INTEGRAL STORAGE ON DISK.
 DIRECT TRANSFORMATION SKIPS AO INTEGRAL STORAGE ON DISK.
  ...... END OF TWO-ELECTRON INTEGRALS .....
 STEP CPU TIME =     0.00 TOTAL CPU TIME =        2.6 (    0.0 MIN)
 TOTAL WALL CLOCK TIME=        2.9 SECONDS, CPU UTILIZATION IS  91.32%

          --------------------
          2 ELECTRON INTEGRALS
          --------------------

 DIRECT SCF METHOD SKIPS INTEGRAL STORAGE ON DISK.
 DIRECT TRANSFORMATION SKIPS AO INTEGRAL STORAGE ON DISK.
  ...... END OF TWO-ELECTRON INTEGRALS .....
 STEP CPU TIME =     0.00 TOTAL CPU TIME =        2.6 (    0.0 MIN)
 TOTAL WALL CLOCK TIME=        2.9 SECONDS, CPU UTILIZATION IS  91.32%

          ---------------------------
             RO-WB97X SCF CALCULATION
          ---------------------------

     NUCLEAR ENERGY =       134.9642390575
     MAXIT =200     NPUNCH=  2     MULT=  1
     EXTRAP=T  DAMP=F  SHIFT=F  RSTRCT=F  DIIS=T  SOSCF=F
         DENSITY MATRIX CONVERGENCE THRESHOLD=  2.00E-05
     COARSE -> FINE DFT GRID SWITCH THRESHOLD=  3.00E-04 (SWITCH IN $DFT)
                   HF -> DFT SWITCH THRESHOLD=  5.00E-03 (SWOFF IN $DFT)
     ROHF CANONICALIZATION PARAMETERS
             C-C     O-O     V-V
     ALPHA -0.5000  0.5000  1.5000
     BETA   1.5000  0.5000 -0.5000
     MEMORY REQUIRED FOR UHF/ROHF ITERS=    176083 WORDS.

 DIRECT SCF CALCULATION, SCHWRZ=T   FDIFF=T
 SCHWARZ INEQUALITY OVERHEAD:      1376 INTEGRALS, T=        0.00
 DFT IS SWITCHED OFF, PERFORMING PURE SCF UNTIL SWOFF THRESHOLD IS REACHED.

                                                                                NONZERO     BLOCKS
 ITER EX      TOTAL ENERGY        E CHANGE  DENSITY CHANGE    DIIS ERROR      INTEGRALS    SKIPPED
          * * *   INITIATING DIIS PROCEDURE   * * *
   1  0     -192.6012230246  -192.6012230246   0.363583065   0.487242116         923754       6146
   2  1     -193.0053898760    -0.4041668514   0.060731786   0.087855821         921842       7105
   3  2     -193.0310945463    -0.0257046703   0.024947829   0.030153419         917366       8405
   4  3     -193.0349289618    -0.0038344155   0.011538454   0.012011293         910835      10372
   5  4     -193.0352921012    -0.0003631394   0.003188696   0.004236809         904467      11517
 CONVERGED TO SWOFF, SO DFT CALCULATION IS NOW SWITCHED ON.
          * * *   INITIATING DIIS PROCEDURE   * * *
   6  5     -194.9854743165    -1.9501822152   0.034321648   0.022826801         920979       6116
   7  6     -194.9880773777    -0.0026030612   0.007788190   0.009768478         911397       9636
   8  7     -194.9884527218    -0.0003753441   0.001757939   0.002408029         902193      11557
   9  8     -194.9884865970    -0.0000338752   0.000600956   0.000602973         891521      13727
  10  9     -194.9884871559    -0.0000005588   0.000234506   0.000383946         869826      17362
  11 10     -194.9884873396    -0.0000001837   0.000089401   0.000069492         859047      19010
  12 11     -194.9884873496    -0.0000000100   0.000010615   0.000010761         840294      22282
  13 12     -194.9884873500    -0.0000000004   0.000003265   0.000003286         807406      27504

          -----------------
          DENSITY CONVERGED
          -----------------
     TIME TO FORM FOCK OPERATORS=      17.9 SECONDS (       1.4 SEC/ITER)
     FOCK TIME ON FIRST ITERATION=       0.1, LAST ITERATION=       2.0
     TIME TO SOLVE SCF EQUATIONS=       0.0 SECONDS (       0.0 SEC/ITER)

 FINAL RO-WB97X ENERGY IS     -194.9884873500 AFTER  13 ITERATIONS
 DFT EXCHANGE + CORRELATION ENERGY =       -12.6226449451
 TOTAL ELECTRON NUMBER             =        33.9924410437

          --------------------
          SPIN SZ   =    0.000
          S-SQUARED =    0.000
          --------------------

          ------------
          EIGENVECTORS
          ------------

                      1          2          3          4          5
                  -19.8377   -10.7784   -10.7169   -10.7071    -1.2543
                     A          A          A          A          A   
    1  O  1  S    0.995790  -0.000057  -0.000010  -0.000002  -0.200275
    2  O  1  S    0.024072  -0.000584  -0.000324  -0.000174   0.438661
    3  O  1  X    0.001383   0.000044  -0.000078   0.000122   0.080035
    4  O  1  Y   -0.000948   0.000121   0.000102   0.000130  -0.052608
    5  O  1  Z    0.001166  -0.000012   0.000005   0.000032   0.065089
    6  O  1  S   -0.013191   0.004313   0.000472  -0.000006   0.467465
    7  O  1  X   -0.001525  -0.000211   0.000188  -0.000550   0.039087
    8  O  1  Y    0.002762  -0.001721  -0.000158  -0.000569  -0.045132
    9  O  1  Z   -0.001945   0.000251   0.000037  -0.000196   0.040012
   10  C  2  S   -0.000102   0.996418  -0.002821  -0.002556  -0.077290
   11  C  2  S   -0.001139   0.029937  -0.000789  -0.000721   0.154135
   12  C  2  X    0.000082   0.000095  -0.000119   0.000134   0.007221
   13  C  2  Y    0.000391   0.000276   0.000033   0.000046   0.088539
   14  C  2  Z   -0.000026  -0.000220   0.000075   0.000062  -0.037030
   15  C  2  S    0.007617  -0.030904   0.005240   0.005255   0.041586
   16  C  2  X   -0.000094   0.000266   0.003006  -0.003158   0.013132
   17  C  2  Y    0.002819   0.001827  -0.001562  -0.001217  -0.023611
   18  C  2  Z   -0.001670   0.002509  -0.000729  -0.000515   0.017869
   19  H  3  S    0.000466  -0.000008  -0.000208   0.000261   0.130885
   20  H  3  S    0.001902   0.000639  -0.000059   0.000502  -0.004221
   21  H  4  S   -0.000430   0.000297  -0.000200  -0.000211   0.025452
   22  H  4  S   -0.000392   0.004206   0.000135   0.000065  -0.003072
   23  C  5  S    0.000015   0.002387  -0.001432   0.996185  -0.017413
   24  C  5  S   -0.000061  -0.000902  -0.000728   0.029309   0.033168
   25  C  5  X   -0.000192   0.000092  -0.000225   0.000128   0.018056
   26  C  5  Y   -0.000203  -0.000037   0.000081  -0.000039   0.014476
   27  C  5  Z   -0.000028  -0.000019   0.000045  -0.000008   0.003437
   28  C  5  S   -0.001559   0.008651   0.001702  -0.024991   0.028826
   29  C  5  X   -0.000478   0.003892   0.001048  -0.001541   0.004720
   30  C  5  Y   -0.000381   0.001880  -0.000430  -0.000576   0.007800
   31  C  5  Z    0.000041   0.000941  -0.000325  -0.000240  -0.001457
   32  C  6  S   -0.000001   0.002651   0.996177   0.001296  -0.018071
   33  C  6  S   -0.000323  -0.000997   0.029208  -0.000665   0.037335
   34  C  6  X    0.000167  -0.000084   0.000017   0.000233  -0.015184
   35  C  6  Y   -0.000298  -0.000059  -0.000041   0.000059   0.017737
   36  C  6  Z   -0.000010  -0.000009   0.000004   0.000048   0.003761
   37  C  6  S   -0.000592   0.008739  -0.024824   0.001717   0.009315
   38  C  6  X    0.000418  -0.003454   0.001279  -0.001105   0.000919
   39  C  6  Y   -0.000123   0.002619  -0.000599  -0.000298   0.003309
   40  C  6  Z    0.000041   0.000844  -0.000295  -0.000409  -0.007030
   41  H  7  S    0.000055  -0.000378  -0.000165   0.000044   0.006311
   42  H  7  S    0.000030   0.000067  -0.000574   0.004438   0.001058
   43  H  8  S   -0.000009  -0.000411   0.000019  -0.000179   0.007359
   44  H  8  S   -0.000077  -0.000034   0.004389  -0.000610  -0.000308
   45  H  9  S    0.000034  -0.000301  -0.000019   0.000004   0.006281
   46  H  9  S   -0.000026  -0.000034   0.000750   0.004083   0.001796
   47  H 10  S    0.000061  -0.000304  -0.000046   0.000009   0.007354
   48  H 10  S   -0.000518  -0.000200   0.004086   0.000687   0.006261
   49  H 11  S   -0.000010  -0.000261  -0.000152  -0.000012   0.004791
   50  H 11  S    0.000332   0.000110  -0.000476   0.004216  -0.001992
   51  H 12  S   -0.000048  -0.000256  -0.000003  -0.000150   0.005753
   52  H 12  S    0.000401   0.000217   0.004324  -0.000498  -0.000984

                      6          7          8          9         10
                   -0.9830    -0.8897    -0.7626    -0.6674    -0.6050
                     A          A          A          A          A   
    1  O  1  S    0.063527   0.003724   0.031906   0.024983  -0.016711
    2  O  1  S   -0.139588  -0.009126  -0.072706  -0.057717   0.038879
    3  O  1  X   -0.056613   0.052027  -0.101969   0.221929  -0.202229
    4  O  1  Y   -0.079028   0.017405  -0.193167   0.263315  -0.033840
    5  O  1  Z   -0.007923  -0.002160   0.064493   0.107662   0.108176
    6  O  1  S   -0.194549  -0.008755  -0.112433  -0.093953   0.063553
    7  O  1  X   -0.024642   0.021465  -0.049907   0.115572  -0.122361
    8  O  1  Y   -0.016445   0.003987  -0.089120   0.138882  -0.015667
    9  O  1  Z   -0.009183  -0.001436   0.031827   0.061255   0.066234
   10  C  2  S   -0.122336   0.008723  -0.125266  -0.015014   0.032178
   11  C  2  S    0.238726  -0.017677   0.250569   0.022625  -0.063793
   12  C  2  X   -0.007838   0.164800   0.005081   0.056469  -0.109756
   13  C  2  Y   -0.090761  -0.018660   0.076743  -0.128543   0.187556
   14  C  2  Z   -0.015010   0.001224   0.091531   0.264277   0.165201
   15  C  2  S    0.226433  -0.024612   0.335567   0.043854  -0.095995
   16  C  2  X    0.002224   0.030006   0.013838   0.055183  -0.059928
   17  C  2  Y   -0.011457   0.001604   0.001665  -0.023224   0.082644
   18  C  2  Z   -0.007462   0.005677   0.031765   0.118098   0.080123
   19  H  3  S   -0.081430   0.025308  -0.117221   0.194237  -0.087201
   20  H  3  S   -0.014856   0.008920  -0.046166   0.088767  -0.040761
   21  H  4  S    0.068929  -0.005304   0.146025   0.155500   0.068877
   22  H  4  S    0.007310  -0.003749   0.054481   0.083605   0.051810
   23  C  5  S   -0.108848   0.137043   0.084233  -0.011597  -0.005393
   24  C  5  S    0.210835  -0.263030  -0.157224   0.014502   0.010893
   25  C  5  X    0.052825   0.009620   0.103926  -0.037503  -0.173454
   26  C  5  Y    0.010801  -0.011227   0.071723  -0.094628   0.122183
   27  C  5  Z    0.015719  -0.006636   0.060359   0.103145   0.099321
   28  C  5  S    0.167979  -0.264552  -0.218372   0.067189   0.016742
   29  C  5  X    0.001543   0.003576   0.015699   0.000398  -0.073627
   30  C  5  Y   -0.008978   0.002186   0.016545  -0.030792   0.057291
   31  C  5  Z    0.005828  -0.002759   0.017965   0.046790   0.042428
   32  C  6  S   -0.115029  -0.141644   0.063248   0.013215  -0.019601
   33  C  6  S    0.222018   0.268875  -0.115607  -0.024993   0.033515
   34  C  6  X   -0.047194   0.024455  -0.086005  -0.012682   0.264220
   35  C  6  Y    0.017582   0.003272   0.073666  -0.009887  -0.088684
   36  C  6  Z    0.016367   0.003780   0.061338   0.133806   0.052523
   37  C  6  S    0.180344   0.291925  -0.185930  -0.050484   0.087759
   38  C  6  X   -0.001757   0.001450  -0.009749  -0.006055   0.104467
   39  C  6  Y   -0.005958   0.004893   0.006864  -0.009151  -0.037570
   40  C  6  Z    0.004241   0.001253   0.015515   0.046627   0.037406
   41  H  7  S    0.061247  -0.089524  -0.098132  -0.047944  -0.056506
   42  H  7  S    0.010631  -0.018795  -0.038762  -0.032894  -0.037395
   43  H  8  S    0.065404   0.094150  -0.082085  -0.087283  -0.013454
   44  H  8  S    0.010634   0.018446  -0.034897  -0.054049  -0.009187
   45  H  9  S    0.056371  -0.099341  -0.075879   0.011938   0.147010
   46  H  9  S    0.006178  -0.024895  -0.028983   0.002705   0.096430
   47  H 10  S    0.061609   0.107550  -0.063325   0.005879   0.144816
   48  H 10  S    0.008480   0.030914  -0.026889   0.012706   0.094912
   49  H 11  S    0.063657  -0.090640  -0.095164   0.081608  -0.028422
   50  H 11  S    0.007972  -0.018264  -0.043271   0.049997  -0.017245
   51  H 12  S    0.068402   0.096250  -0.073130   0.021905   0.077072
   52  H 12  S    0.010725   0.023006  -0.035883   0.018565   0.043124

                     11         12         13         14         15
                   -0.5830    -0.5320    -0.5171    -0.5038    -0.4912
                     A          A          A          A          A   
    1  O  1  S    0.040797  -0.020184   0.028642   0.020439  -0.012101
    2  O  1  S   -0.095809   0.045380  -0.061122  -0.052555   0.034036
    3  O  1  X    0.174195  -0.081973   0.111613   0.012695  -0.163545
    4  O  1  Y   -0.152890  -0.060081   0.139375  -0.145301   0.202528
    5  O  1  Z    0.057735  -0.072050   0.075148   0.332424   0.041024
    6  O  1  S   -0.152003   0.088983  -0.143408  -0.060963   0.019982
    7  O  1  X    0.107806  -0.055022   0.067598   0.007462  -0.114162
    8  O  1  Y   -0.102055  -0.039614   0.099165  -0.105596   0.152289
    9  O  1  Z    0.033478  -0.045944   0.046939   0.234912   0.023043
   10  C  2  S   -0.002586   0.007757  -0.013849   0.010496  -0.002017
   11  C  2  S    0.009447  -0.015111   0.024052  -0.017797  -0.002812
   12  C  2  X    0.192810   0.110974  -0.035967   0.060725  -0.175092
   13  C  2  Y    0.124217   0.005250  -0.061476   0.226891  -0.058563
   14  C  2  Z   -0.023052  -0.037198   0.043665   0.091424   0.111834
   15  C  2  S   -0.021759  -0.026916   0.061375  -0.057964   0.038822
   16  C  2  X    0.136703   0.046400  -0.006235   0.070281  -0.106884
   17  C  2  Y    0.058475  -0.007851   0.001149   0.110300   0.001066
   18  C  2  Z    0.009527  -0.023988   0.017941   0.093190   0.049601
   19  H  3  S    0.031640  -0.065168   0.107505  -0.002532  -0.003609
   20  H  3  S    0.013122  -0.037248   0.063852  -0.019420   0.013237
   21  H  4  S   -0.006307  -0.033212   0.044761   0.053996   0.080368
   22  H  4  S   -0.013224  -0.022151   0.033563   0.037066   0.071536
   23  C  5  S   -0.017444  -0.000683  -0.004616   0.006708  -0.005284
   24  C  5  S    0.026768   0.000549   0.010915  -0.016851   0.010879
   25  C  5  X   -0.158122   0.008998  -0.007007  -0.055313   0.245829
   26  C  5  Y   -0.010625  -0.075285   0.342658  -0.179220  -0.080237
   27  C  5  Z   -0.097270  -0.213287  -0.225242  -0.178427  -0.151097
   28  C  5  S    0.117694   0.003383   0.022036   0.026535  -0.005425
   29  C  5  X   -0.053923   0.008869  -0.009252   0.005159   0.132808
   30  C  5  Y   -0.003366  -0.028509   0.158626  -0.103516  -0.049693
   31  C  5  Z   -0.024053  -0.114987  -0.114433  -0.094302  -0.100164
   32  C  6  S    0.005675   0.002757  -0.001700   0.005720   0.009028
   33  C  6  S   -0.007612  -0.004675   0.003577  -0.006629  -0.018509
   34  C  6  X    0.104389   0.017052  -0.063194  -0.032973   0.211379
   35  C  6  Y    0.307542  -0.061370  -0.058613  -0.179386   0.130267
   36  C  6  Z    0.009788   0.369705  -0.013226  -0.132459  -0.083194
   37  C  6  S   -0.040772  -0.018653   0.004441  -0.024207  -0.020501
   38  C  6  X    0.052745   0.010864  -0.033902  -0.034113   0.106396
   39  C  6  Y    0.144438  -0.032134  -0.042504  -0.121119   0.063201
   40  C  6  Z   -0.011267   0.202487  -0.004683  -0.086013  -0.032956
   41  H  7  S    0.077269   0.141679   0.152512   0.124566   0.116963
   42  H  7  S    0.050639   0.096975   0.110634   0.094428   0.087404
   43  H  8  S   -0.018241  -0.251608   0.016457   0.096859   0.050889
   44  H  8  S   -0.017970  -0.174949   0.015196   0.071162   0.052808
   45  H  9  S    0.066356  -0.077613   0.095582  -0.089898  -0.194961
   46  H  9  S    0.035045  -0.053339   0.067648  -0.058430  -0.143481
   47  H 10  S    0.142206   0.066404  -0.055699  -0.114308   0.152022
   48  H 10  S    0.112381   0.048239  -0.039759  -0.081733   0.131478
   49  H 11  S    0.007434  -0.002262  -0.280057   0.073167  -0.004623
   50  H 11  S   -0.013067   0.007402  -0.234133   0.057188  -0.005862
   51  H 12  S   -0.190001   0.131421   0.031814   0.086150  -0.130528
   52  H 12  S   -0.129561   0.101495   0.010267   0.065876  -0.113247

                     16         17         18         19         20
                   -0.4541    -0.4089     0.1774     0.2286     0.2531
                     A          A          A          A          A   
    1  O  1  S    0.044319   0.000391  -0.056235   0.053931  -0.022520
    2  O  1  S   -0.105682   0.002204   0.105984  -0.078723   0.063097
    3  O  1  X    0.275889  -0.245629   0.172806  -0.138828   0.009899
    4  O  1  Y   -0.151290   0.194158   0.033589   0.035958  -0.103576
    5  O  1  Z    0.186280   0.438913   0.050746  -0.134997   0.010512
    6  O  1  S   -0.173467  -0.019628   0.624808  -0.725872   0.119169
    7  O  1  X    0.199640  -0.196295   0.321375  -0.247470  -0.010692
    8  O  1  Y   -0.131007   0.161989   0.102811   0.077181  -0.127342
    9  O  1  Z    0.144855   0.350965   0.085275  -0.217727   0.069139
   10  C  2  S   -0.009236  -0.003372  -0.032807  -0.034286   0.034292
   11  C  2  S    0.034542   0.015485   0.012043   0.072254  -0.042570
   12  C  2  X   -0.265621   0.096340   0.008334   0.002488  -0.011395
   13  C  2  Y    0.053581  -0.092551  -0.081448   0.145521  -0.121673
   14  C  2  Z   -0.182951  -0.194212   0.133925  -0.010342  -0.104248
   15  C  2  S   -0.036081  -0.012725   0.747031   0.406385  -0.509976
   16  C  2  X   -0.069030   0.020799  -0.041682   0.049925   0.051292
   17  C  2  Y    0.004333   0.014593  -0.185774   0.354623  -0.019183
   18  C  2  Z   -0.058984  -0.062303   0.255436   0.110902  -0.362286
   19  H  3  S    0.123390   0.002984  -0.079531   0.067207  -0.014322
   20  H  3  S    0.080245   0.001697  -0.925993   0.748031  -0.005578
   21  H  4  S   -0.131876  -0.178550  -0.002096   0.028548   0.055130
   22  H  4  S   -0.135887  -0.192822  -0.592079  -0.236156   0.808884
   23  C  5  S   -0.024713  -0.003632  -0.043307  -0.071442  -0.011681
   24  C  5  S    0.047797   0.007805   0.057893   0.071349  -0.012953
   25  C  5  X    0.240919  -0.005829  -0.037388  -0.077400   0.012387
   26  C  5  Y    0.074098   0.020694  -0.054397  -0.023044  -0.174214
   27  C  5  Z    0.096047   0.057267   0.007875  -0.078349  -0.084379
   28  C  5  S    0.141238   0.028719   0.534928   1.283780   0.409164
   29  C  5  X    0.140198   0.012224  -0.264547  -0.301628   0.141558
   30  C  5  Y    0.020161  -0.003538  -0.215435   0.015818  -0.643611
   31  C  5  Z    0.067532   0.014246  -0.005555  -0.352591  -0.191636
   32  C  6  S    0.015202  -0.028627  -0.061116  -0.061670  -0.003163
   33  C  6  S   -0.027249   0.059187   0.067046   0.069588  -0.006114
   34  C  6  X    0.173753  -0.146187   0.110575   0.029763  -0.116826
   35  C  6  Y   -0.094192   0.149039  -0.040495  -0.051137  -0.207037
   36  C  6  Z    0.069307   0.080745   0.017908  -0.095355  -0.095653
   37  C  6  S   -0.070089   0.165033   0.930269   1.077059   0.147592
   38  C  6  X    0.095919  -0.110202   0.464543   0.162343  -0.463720
   39  C  6  Y   -0.047951   0.040275  -0.193522  -0.113697  -0.806831
   40  C  6  Z    0.015131   0.059336  -0.006347  -0.374079  -0.230973
   41  H  7  S   -0.058002  -0.053979   0.031162  -0.037110  -0.037308
   42  H  7  S   -0.072060  -0.084496  -0.144807  -0.918151  -0.525269
   43  H  8  S   -0.075366  -0.045851   0.014017  -0.027794  -0.027687
   44  H  8  S   -0.082291  -0.083540  -0.279933  -0.880859  -0.498539
   45  H  9  S   -0.062831   0.041843  -0.008583  -0.053839   0.061948
   46  H  9  S   -0.072389   0.065081  -0.302480  -0.702855   0.664560
   47  H 10  S    0.092691   0.008356   0.000446  -0.057649   0.075342
   48  H 10  S    0.107961   0.003417  -0.692728  -0.463914   1.113408
   49  H 11  S   -0.016241   0.004251  -0.032625   0.053434  -0.051354
   50  H 11  S   -0.041158  -0.003223  -0.569202  -0.265549  -0.812322
   51  H 12  S    0.069187  -0.054353  -0.039590   0.057352  -0.063307
   52  H 12  S    0.072450  -0.095738  -0.628648  -0.273728  -0.949447

                     21         22         23         24         25
                    0.2552     0.2709     0.2812     0.3098     0.3099
                     A          A          A          A          A   
    1  O  1  S   -0.006552   0.023194   0.001407  -0.017234   0.017267
    2  O  1  S   -0.003239  -0.035934  -0.010627   0.022873  -0.029370
    3  O  1  X    0.102996  -0.031335   0.026202   0.052037   0.015724
    4  O  1  Y    0.078539  -0.093261   0.047308  -0.037563   0.018769
    5  O  1  Z    0.034290  -0.038772  -0.039528   0.048334  -0.043926
    6  O  1  S    0.190754  -0.348892   0.059289   0.323925  -0.235353
    7  O  1  X    0.204411  -0.073530   0.050250   0.066301  -0.042642
    8  O  1  Y    0.159282  -0.118905   0.044916  -0.134333   0.094118
    9  O  1  Z    0.120161  -0.098034  -0.100994   0.120182  -0.081129
   10  C  2  S    0.045695  -0.004289  -0.093990   0.003883  -0.019538
   11  C  2  S   -0.040091   0.007712   0.090706  -0.011554   0.021281
   12  C  2  X   -0.026313  -0.113379  -0.009834  -0.062683   0.086173
   13  C  2  Y    0.032632   0.022487  -0.032532  -0.080467   0.035764
   14  C  2  Z   -0.186780   0.056797   0.153066  -0.018955   0.007316
   15  C  2  S   -0.879933   0.071984   1.780539   0.055642   0.308386
   16  C  2  X   -0.330218  -0.634499  -0.146402   0.067992   0.426899
   17  C  2  Y    0.039322   0.183671  -0.277722  -0.582229   0.232046
   18  C  2  Z   -0.558179   0.079145   0.840494  -0.047331   0.071453
   19  H  3  S   -0.021028   0.067992  -0.006440   0.029421   0.028648
   20  H  3  S   -0.473764   0.545161  -0.094596  -0.092262   0.062174
   21  H  4  S    0.064926  -0.026382   0.001394   0.009689  -0.003481
   22  H  4  S    1.199945  -0.291821  -1.419798   0.163788  -0.223312
   23  C  5  S    0.037395   0.094847   0.070292   0.011451   0.004023
   24  C  5  S   -0.024383  -0.082948  -0.059073  -0.012799   0.002996
   25  C  5  X    0.083993   0.041193   0.024145  -0.141312   0.205662
   26  C  5  Y    0.081970  -0.020638   0.013720   0.281973  -0.012128
   27  C  5  Z   -0.123427   0.113656  -0.107081  -0.105430  -0.194767
   28  C  5  S   -0.809466  -1.720669  -1.232807  -0.147223  -0.092175
   29  C  5  X    0.175521  -0.044695  -0.030454  -0.639206   0.797253
   30  C  5  Y    0.200024  -0.170008  -0.028225   1.164536  -0.022476
   31  C  5  Z   -0.235283   0.396346  -0.709932  -0.413015  -0.841871
   32  C  6  S   -0.065818  -0.096264   0.032411  -0.004849   0.011431
   33  C  6  S    0.048524   0.081364  -0.028356   0.029971  -0.022849
   34  C  6  X    0.091848   0.028602  -0.031806  -0.102034   0.165595
   35  C  6  Y    0.120006  -0.132294   0.001786  -0.151517  -0.060416
   36  C  6  Z   -0.140811   0.082669  -0.176422   0.022828   0.178698
   37  C  6  S    1.236356   1.828028  -0.515047  -0.201682  -0.063397
   38  C  6  X    0.205783  -0.145474  -0.095761  -0.201236   0.545037
   39  C  6  Y    0.476299  -0.303767   0.006199  -0.590827  -0.388163
   40  C  6  Z   -0.350758   0.265283  -1.037514   0.140313   0.691062
   41  H  7  S    0.011964   0.048612  -0.022485  -0.028940  -0.084612
   42  H  7  S   -0.148961   1.218612  -0.247593  -0.446782  -1.092060
   43  H  8  S   -0.051424  -0.025769  -0.067951   0.054286   0.053606
   44  H  8  S   -1.073037  -0.351321  -0.954797   0.220601   0.986955
   45  H  9  S   -0.004686  -0.032619   0.036812  -0.043728   0.060533
   46  H  9  S    0.409605   0.482085   0.753415  -1.183711   1.218993
   47  H 10  S    0.009063   0.021262   0.053765   0.026528  -0.034795
   48  H 10  S   -0.752716  -0.444210   0.751840   0.649506  -0.733292
   49  H 11  S    0.019249   0.015664  -0.012671   0.056222   0.063063
   50  H 11  S    0.779669   0.314727   0.689211   1.531597   0.572115
   51  H 12  S    0.016135  -0.022877  -0.000767  -0.078655  -0.056055
   52  H 12  S    0.349442  -1.259398   0.587722  -0.875367  -0.677742

                     26         27         28         29         30
                    0.3409     0.3595     0.3826     0.6666     0.6876
                     A          A          A          A          A   
    1  O  1  S    0.010345   0.046877  -0.022401  -0.001254  -0.004432
    2  O  1  S   -0.007245  -0.043239   0.024338  -0.019872   0.032629
    3  O  1  X    0.106488   0.038416  -0.094268   0.029449   0.002283
    4  O  1  Y    0.155908   0.268564  -0.112970   0.049273   0.047753
    5  O  1  Z   -0.091299  -0.050802   0.038863  -0.011069  -0.011678
    6  O  1  S   -0.207773  -0.882164   0.417654   0.176581   0.009007
    7  O  1  X    0.181183   0.054826  -0.333033   0.013203  -0.168314
    8  O  1  Y    0.348506   0.796499  -0.365301  -0.003524  -0.011065
    9  O  1  Z   -0.228651  -0.106913   0.118597   0.066536  -0.006686
   10  C  2  S    0.055373  -0.125996   0.037471   0.005813  -0.004803
   11  C  2  S   -0.012347   0.114768  -0.053663  -0.074043   0.028316
   12  C  2  X    0.073615   0.146493   0.354454  -0.027312  -0.432749
   13  C  2  Y    0.290908   0.110242  -0.148142   0.154332   0.028542
   14  C  2  Z    0.139114  -0.272970   0.047343   0.073538  -0.046625
   15  C  2  S   -1.561933   2.437602  -0.640370   0.362066  -0.029459
   16  C  2  X    0.532306   0.638626   2.061626   0.025112   0.929955
   17  C  2  Y    1.669304   0.482890  -0.702387  -0.535523   0.036019
   18  C  2  Z    0.696664  -1.460523   0.360441  -0.272908   0.065619
   19  H  3  S   -0.057412  -0.019543   0.015180  -0.020838   0.021617
   20  H  3  S   -0.688962  -0.397773   0.269004  -0.095336  -0.091512
   21  H  4  S   -0.015191   0.031466  -0.029451  -0.151023  -0.017174
   22  H  4  S   -0.463042   0.548279  -0.052455   0.083365  -0.020614
   23  C  5  S   -0.048960   0.034062  -0.037769  -0.004876   0.001169
   24  C  5  S    0.000377   0.014405  -0.022861   0.124324   0.020210
   25  C  5  X    0.092459  -0.003450   0.122803   0.449839   0.265249
   26  C  5  Y    0.113538   0.012277   0.060011  -0.233522   0.102524
   27  C  5  Z    0.077925   0.105769   0.114655  -0.198678   0.454993
   28  C  5  S    1.297391  -0.771598   1.067181  -0.459461   0.500837
   29  C  5  X    1.178322  -0.562499   0.981441  -0.638614  -0.306245
   30  C  5  Y    0.355392  -0.264579   1.023919   0.518927  -0.060089
   31  C  5  Z    0.357267   0.597614   0.700893   0.428841  -0.653467
   32  C  6  S   -0.033101   0.060073   0.020778  -0.006080   0.002739
   33  C  6  S    0.000361   0.015067   0.006546   0.105144  -0.054978
   34  C  6  X   -0.130466   0.022406   0.145895  -0.439394   0.325549
   35  C  6  Y   -0.032684  -0.092688  -0.073017  -0.217161  -0.060816
   36  C  6  Z    0.007418  -0.007629  -0.152591  -0.246610  -0.479455
   37  C  6  S    0.827335  -1.361370  -0.687919  -0.476851  -0.376927
   38  C  6  X   -1.232900   0.797045   0.813362   0.681606  -0.438195
   39  C  6  Y   -0.225150  -1.185327  -0.678212   0.481600  -0.119564
   40  C  6  Z   -0.001871  -0.002149  -0.892851   0.498954   0.707247
   41  H  7  S    0.008646  -0.024772   0.067090   0.238314  -0.299806
   42  H  7  S    0.092946   0.741649   0.603849   0.126375  -0.031755
   43  H  8  S   -0.007287  -0.067444  -0.027280   0.273527   0.294569
   44  H  8  S   -0.241472   0.195495  -0.795384   0.119839   0.059103
   45  H  9  S    0.032143  -0.029942   0.044402  -0.333601   0.068459
   46  H  9  S   -0.037514  -0.183880  -0.131108   0.058454  -0.046878
   47  H 10  S    0.051203  -0.032753  -0.051109  -0.357826  -0.023218
   48  H 10  S    0.811821   0.320565  -0.133178   0.051061   0.084837
   49  H 11  S    0.053332   0.036436   0.022941   0.138283  -0.017716
   50  H 11  S    0.155977  -0.083400   0.319199   0.094148  -0.031139
   51  H 12  S    0.023374   0.004199  -0.058324   0.156319  -0.054509
   52  H 12  S   -0.417729  -0.468783  -0.128847   0.084103  -0.056570

                     31         32         33         34         35
                    0.7323     0.7451     0.7571     0.8284     0.8845
                     A          A          A          A          A   
    1  O  1  S   -0.013185  -0.010127   0.028543   0.007419  -0.009572
    2  O  1  S    0.137303  -0.026254  -0.169115   0.014784   0.013754
    3  O  1  X    0.094999  -0.072181   0.123010   0.038521  -0.013833
    4  O  1  Y   -0.235806   0.117131   0.067897  -0.078172   0.177200
    5  O  1  Z   -0.000411   0.222877   0.098945  -0.018049  -0.109015
    6  O  1  S   -0.608274   0.303099   0.271986  -0.610553   0.373569
    7  O  1  X   -0.071496   0.059581  -0.071815   0.036339  -0.183486
    8  O  1  Y    0.093517  -0.137486  -0.083028   0.238186  -0.266821
    9  O  1  Z   -0.101077   0.021599   0.023142  -0.055051  -0.012635
   10  C  2  S    0.053275   0.013446  -0.020307  -0.055915  -0.011640
   11  C  2  S   -0.425080  -0.092515   0.114927   0.180178   0.134457
   12  C  2  X   -0.120753   0.009365  -0.053837   0.038612  -0.897949
   13  C  2  Y   -0.699414  -0.212403   0.152817  -0.822700  -0.067199
   14  C  2  Z    0.151603   0.108354   0.047089   0.049413  -0.470613
   15  C  2  S    0.910933  -0.296615  -0.469951  -0.564277  -0.600789
   16  C  2  X    0.250198  -0.020470   0.058488  -0.124615   2.185694
   17  C  2  Y    1.192886  -0.306615  -0.619354   1.655104  -0.007289
   18  C  2  Z    0.002321   0.086650  -0.119265  -0.414748   1.474950
   19  H  3  S    0.120794  -0.135279   0.298611   0.018939  -0.020191
   20  H  3  S   -0.203324  -0.115903  -0.129841  -0.274886  -0.173300
   21  H  4  S    0.025173   0.237401   0.204992  -0.144119  -0.171368
   22  H  4  S   -0.057373  -0.017088   0.012437   0.027597  -0.557351
   23  C  5  S   -0.009106  -0.003483   0.021963   0.026378   0.034536
   24  C  5  S    0.055512   0.064077  -0.122884  -0.131720  -0.283393
   25  C  5  X    0.213940   0.146004  -0.422432  -0.364851  -0.313727
   26  C  5  Y    0.020059  -0.036063  -0.659105  -0.088436  -0.190749
   27  C  5  Z    0.294204   0.163226   0.167659  -0.381712  -0.120156
   28  C  5  S    0.251737  -0.071361  -0.183694   0.202405   1.436221
   29  C  5  X   -0.136917  -0.198085   0.507866   0.445742   0.993884
   30  C  5  Y   -0.044724   0.285808   1.348957  -0.162033   0.703980
   31  C  5  Z   -0.526389  -0.422001  -0.507341   0.886932   0.301991
   32  C  6  S   -0.017849   0.012905   0.001190   0.037286  -0.021477
   33  C  6  S    0.146503  -0.102137   0.043224  -0.192956   0.043415
   34  C  6  X   -0.367359   0.163555  -0.059261   0.395906  -0.099556
   35  C  6  Y    0.383058  -0.636420   0.033829  -0.227626   0.012551
   36  C  6  Z    0.184696   0.289991  -0.123383  -0.405887   0.350373
   37  C  6  S    0.076300  -0.063855  -0.246938   0.363200  -0.343421
   38  C  6  X    0.326085  -0.158138   0.182379  -0.664342   0.238647
   39  C  6  Y   -0.690617   1.331681   0.042124   0.127577  -0.161130
   40  C  6  Z   -0.291864  -0.825393   0.202449   0.971749  -1.205429
   41  H  7  S   -0.160537  -0.163104  -0.169759   0.143659   0.188734
   42  H  7  S   -0.170859  -0.127726  -0.027778   0.322478   0.045992
   43  H  8  S   -0.079929  -0.251672   0.017282   0.157820  -0.107237
   44  H  8  S   -0.152339  -0.192088   0.063009   0.384624  -0.527035
   45  H  9  S   -0.136996   0.038686  -0.016353  -0.048328   0.040667
   46  H  9  S    0.048568  -0.094212   0.003684  -0.010262   0.116327
   47  H 10  S   -0.088908  -0.054609   0.095106   0.010072  -0.189796
   48  H 10  S    0.055192  -0.000530  -0.108090   0.063408   0.078906
   49  H 11  S    0.160697   0.103002   0.485469   0.016140  -0.009346
   50  H 11  S    0.033480   0.214844   0.349308  -0.117094   0.234275
   51  H 12  S   -0.053008   0.491900  -0.054680   0.067722   0.003187
   52  H 12  S   -0.072843   0.411023   0.104384  -0.071804   0.088791

                     36         37         38         39         40
                    0.8935     0.9339     1.0237     1.0595     1.0915
                     A          A          A          A          A   
    1  O  1  S   -0.000276   0.005062   0.005546   0.024316   0.012112
    2  O  1  S   -0.098849  -0.007094   0.039813  -0.220644  -0.100799
    3  O  1  X    0.166177   0.065382  -0.499005  -0.264847   0.006475
    4  O  1  Y    0.048686   0.007117   0.088278   0.227147   0.089141
    5  O  1  Z   -0.165351  -0.007856  -0.257131  -0.192943   0.208006
    6  O  1  S    0.597635  -0.008636   0.042807   0.279601  -0.046744
    7  O  1  X    0.064631  -0.273924   0.172097   0.095385  -0.047159
    8  O  1  Y   -0.283500  -0.035294  -0.350294  -0.348182  -0.102602
    9  O  1  Z   -0.033942   0.005833   0.100220   0.205353  -0.399182
   10  C  2  S   -0.002974   0.000936   0.012256  -0.023714   0.011536
   11  C  2  S    0.147874  -0.008505  -0.043058  -0.002142  -0.884344
   12  C  2  X    0.517585  -0.102878   0.117799   0.052077   0.031499
   13  C  2  Y   -0.096495   0.036154  -0.076376   0.023471   0.029360
   14  C  2  Z   -0.754647   0.029680  -0.378559   0.507931  -0.431408
   15  C  2  S   -0.603642  -0.001718  -0.152110  -0.604852   1.645952
   16  C  2  X   -1.265955   1.407543  -0.218580  -0.044873  -0.040083
   17  C  2  Y   -0.063324  -0.148010   0.282559  -0.045566   0.193937
   18  C  2  Z    2.438363  -0.104311   0.577141  -0.510166   1.065368
   19  H  3  S   -0.124927   0.153026   0.898164   0.581413   0.117757
   20  H  3  S    0.104271  -0.052531  -0.646833  -0.574916  -0.103824
   21  H  4  S   -0.279277   0.035887   0.483626  -0.629933   0.307194
   22  H  4  S   -0.894423   0.024943  -0.694360   0.958102  -1.437244
   23  C  5  S   -0.013292  -0.026634   0.012200  -0.038107  -0.049066
   24  C  5  S   -0.005741  -0.135523  -0.122353  -0.182135   0.181509
   25  C  5  X    0.039862   0.485266   0.132747  -0.111081  -0.134645
   26  C  5  Y   -0.132865  -0.380123   0.174168  -0.084924   0.052093
   27  C  5  Z    0.410710  -0.323960  -0.048683   0.192739  -0.341395
   28  C  5  S    0.140185   1.263701   0.266374   0.622657  -0.188840
   29  C  5  X   -0.016194  -1.137784   0.092881  -0.032537   0.049600
   30  C  5  Y    0.386316   1.255622  -0.334785  -0.017572  -0.225489
   31  C  5  Z   -1.373909   1.051967   0.130159  -0.332605   0.321721
   32  C  6  S    0.020016   0.026253   0.025916  -0.027378  -0.046960
   33  C  6  S   -0.203019   0.160873  -0.070826  -0.191691   0.219510
   34  C  6  X    0.158363   0.531651  -0.084704   0.062589   0.111312
   35  C  6  Y   -0.220754   0.325974   0.057205  -0.241992  -0.058077
   36  C  6  Z    0.184833   0.293899  -0.074172   0.179184  -0.353384
   37  C  6  S    1.164970  -1.349833   0.218592   0.532401  -0.268985
   38  C  6  X   -0.700288  -1.306394  -0.124514   0.073658  -0.059423
   39  C  6  Y    0.890783  -1.102635   0.146054   0.276698  -0.023659
   40  C  6  Z   -0.586497  -0.948996   0.232525  -0.335899   0.334584
   41  H  7  S   -0.024550  -0.073470   0.106260  -0.123551  -0.532450
   42  H  7  S   -0.638427   0.345423   0.060299  -0.412459   0.597620
   43  H  8  S    0.175420   0.065299   0.136289  -0.103581  -0.560357
   44  H  8  S   -0.374396  -0.287377   0.163223  -0.382514   0.669485
   45  H  9  S   -0.212462  -0.359476   0.161424  -0.327174  -0.379486
   46  H  9  S    0.060830  -1.041822  -0.011117   0.094647   0.245406
   47  H 10  S    0.017888   0.354684   0.124831  -0.213035  -0.304759
   48  H 10  S    0.131233   1.060630  -0.010583  -0.020173   0.152794
   49  H 11  S   -0.004098  -0.121189   0.150088  -0.408317  -0.191355
   50  H 11  S    0.328340   0.144938  -0.314450   0.151933  -0.177209
   51  H 12  S   -0.054948   0.147248   0.306991  -0.391718  -0.241017
   52  H 12  S    0.467422  -0.198869  -0.182967   0.352115   0.009797

                     41         42         43         44         45
                    1.1089     1.1226     1.1393     1.1505     1.1581
                     A          A          A          A          A   
    1  O  1  S   -0.017117   0.014540   0.000362   0.017236   0.019122
    2  O  1  S    0.109249  -0.033922   0.020517  -0.053715  -0.203607
    3  O  1  X    0.014945  -0.075349   0.001880  -0.073972   0.021190
    4  O  1  Y    0.172172  -0.174578   0.022800  -0.132605   0.015599
    5  O  1  Z    0.020954   0.038950   0.043531   0.397390   0.229816
    6  O  1  S    0.140625  -0.341244  -0.103244  -0.310037   0.083665
    7  O  1  X    0.112194   0.213479  -0.095156   0.007893  -0.004561
    8  O  1  Y   -0.368981   0.456750  -0.003389   0.353740   0.030197
    9  O  1  Z    0.016881  -0.106228  -0.057568  -0.500408  -0.329316
   10  C  2  S   -0.001087  -0.000444   0.001599   0.004911  -0.003335
   11  C  2  S    0.202810  -0.123297  -0.015063  -0.143062  -0.454423
   12  C  2  X    0.195407   0.064936   0.003096  -0.060349  -0.048068
   13  C  2  Y    0.043181  -0.100204  -0.027775   0.015608   0.038146
   14  C  2  Z    0.083246  -0.087998  -0.003430  -0.040618  -0.036154
   15  C  2  S   -0.702498   0.828760   0.057418   0.738114   0.400300
   16  C  2  X   -0.890309  -0.503791   0.080618   0.284289  -0.003102
   17  C  2  Y   -0.238990   0.529201   0.123168   0.357481   0.227149
   18  C  2  Z    0.101527  -0.257656  -0.115762  -0.486392   0.327824
   19  H  3  S   -0.050311   0.077720   0.027876   0.154554  -0.000771
   20  H  3  S    0.175328  -0.300213   0.000526  -0.206406  -0.046065
   21  H  4  S   -0.136816   0.214017   0.092955   0.414126  -0.047336
   22  H  4  S    0.241027  -0.211931  -0.030480  -0.181916  -0.336516
   23  C  5  S    0.015421   0.008363   0.009904  -0.002855  -0.025606
   24  C  5  S   -0.199945   0.389407  -0.194648   0.215060  -0.199488
   25  C  5  X   -0.043533   0.191764   0.120086  -0.320576  -0.084124
   26  C  5  Y    0.092078  -0.647497   0.324078   0.192671  -0.096872
   27  C  5  Z   -0.073930  -0.011680  -0.433047   0.396060  -0.200031
   28  C  5  S   -0.078028  -1.217815   0.420177  -0.482308   0.401348
   29  C  5  X   -0.037178  -0.254113  -0.157504   0.361337   0.189368
   30  C  5  Y   -0.206603   0.519045  -0.517108  -0.411833  -0.060167
   31  C  5  Z   -0.241972   0.024803   0.728848  -0.130977   0.200914
   32  C  6  S   -0.019082  -0.016379  -0.005858   0.010038   0.019176
   33  C  6  S    0.069305   0.499312   0.215822   0.092713  -1.553520
   34  C  6  X    0.459251   0.057363   0.043934   0.218911  -0.297457
   35  C  6  Y    0.543347  -0.123089  -0.378454   0.036106   0.173655
   36  C  6  Z    0.137095   0.152260   0.483553   0.278702   0.154096
   37  C  6  S    0.459300  -0.718901  -0.472235  -0.563535   3.276747
   38  C  6  X   -0.592203  -0.138722  -0.081541  -0.201032   0.605376
   39  C  6  Y   -0.369131   0.152377   0.459222  -0.331709  -0.259259
   40  C  6  Z   -0.032315   0.133938  -0.615572  -0.117223  -0.186358
   41  H  7  S   -0.196974  -0.003743  -0.417203   0.643379  -0.435101
   42  H  7  S    0.040010   0.282830   0.853369  -0.654760   0.446243
   43  H  8  S    0.140511   0.250336   0.584537   0.494694   0.515851
   44  H  8  S   -0.296898  -0.032290  -0.928694  -0.463682  -1.274055
   45  H  9  S    0.170575   0.785180   0.106243  -0.597717   0.096934
   46  H  9  S   -0.099495  -0.857458  -0.183839   1.038510  -0.246542
   47  H 10  S   -1.031822  -0.326823  -0.044929  -0.248705   0.113208
   48  H 10  S    1.351513   0.513395   0.145037   0.580205  -0.945594
   49  H 11  S    0.245489  -0.692940   0.612001  -0.183197  -0.320177
   50  H 11  S   -0.302212   1.230428  -1.182605   0.101308   0.098276
   51  H 12  S    0.448885  -0.276417  -0.742277  -0.131638   0.293316
   52  H 12  S   -0.786955   0.450222   1.282086   0.076059  -1.016419

                     46         47         48         49         50
                    1.1702     1.2593     1.2959     1.3967     1.6397
                     A          A          A          A          A   
    1  O  1  S    0.016811   0.034767   0.040547  -0.000691  -0.003674
    2  O  1  S   -0.163716  -0.362333  -0.497250   0.220511   0.155533
    3  O  1  X   -0.018925   0.409194  -0.174529   0.530386   0.329374
    4  O  1  Y    0.079620  -0.450643  -0.525496   0.314662   0.002379
    5  O  1  Z    0.276559  -0.456906   0.372341   0.237669   0.055517
    6  O  1  S   -0.018509   0.292632   0.865377  -0.336050   0.067562
    7  O  1  X    0.124025  -0.709337   0.116989  -1.253544  -0.807839
    8  O  1  Y   -0.013901   0.731463   0.609061  -0.850183  -0.471726
    9  O  1  Z   -0.402980   0.673818  -0.695981  -0.460531  -0.141307
   10  C  2  S   -0.004046  -0.016741   0.003090   0.025487   0.073744
   11  C  2  S   -0.461663  -0.680870   0.625886   0.701146   1.220457
   12  C  2  X    0.094626  -0.069595  -0.059001   0.085336  -0.053883
   13  C  2  Y   -0.014754   0.193138   0.060869  -0.062834  -0.018210
[...]
 VDWsCBR    2   4        0.72241        9.77857      138.66310        0.00000        0.00000
 VDWsCBR    2   5       11.30123      220.74189     3956.76327        0.00000        0.00000
 VDWsCBR    2   6       11.26015      220.11321     3946.77366        0.00000        0.00000
 VDWsCBR    2   7        0.71171        9.60944      138.14572        0.00000        0.00000
 VDWsCBR    2   8        0.71386        9.59802      137.01819        0.00000        0.00000
 VDWsCBR    2   9        0.69121        9.28953      132.63139        0.00000       -0.00000
 VDWsCBR    2  10        0.67972        8.99788      125.36275        0.00000        0.00000
 VDWsCBR    2  11        0.66704        9.18537      134.18653        0.00000       -0.00000
 VDWsCBR    2  12        0.70507        9.49981      134.83170        0.00000        0.00000
 VDWsCBR    3   4        0.07222        0.66099        8.84290        0.00003       -0.00000
 VDWsCBR    3   5        0.90108       13.65094      208.65687        0.00000        0.00000
 VDWsCBR    3   6        0.90549       13.73172      209.91708        0.00000        0.00000
 VDWsCBR    3   7        0.07165        0.65340        8.94877        0.00334       -0.00000
 VDWsCBR    3   8        0.07173        0.65002        8.83628        0.00053       -0.00000
 VDWsCBR    3   9        0.06877        0.62280        8.47093        0.00313       -0.00000
 VDWsCBR    3  10        0.06829        0.60463        8.01538        0.00004       -0.00000
 VDWsCBR    3  11        0.06791        0.63746        8.81128        0.01110       -0.00000
 VDWsCBR    3  12        0.07031        0.63916        8.59534        0.00407       -0.00000
 VDWsCBR    4   5        0.99493       15.86481      248.49949        0.00000        0.00000
 VDWsCBR    4   6        1.00263       16.00297      250.70897        0.00000        0.00000
 VDWsCBR    4   7        0.08660        0.85868       11.61631        0.00523       -0.00000
 VDWsCBR    4   8        0.08662        0.85392       11.46369        0.00526       -0.00000
 VDWsCBR    4   9        0.08268        0.81456       10.94017        0.00049       -0.00000
 VDWsCBR    4  10        0.08245        0.79572       10.40791        0.00062       -0.00000
 VDWsCBR    4  11        0.08249        0.84008       11.49947        0.00059        0.00000
 VDWsCBR    4  12        0.08461        0.83656       11.12246        0.00057        0.00000
 VDWsCBR    5   6       15.28354      335.58834     6653.95685        0.00029        0.00000
 VDWsCBR    5   7        0.98062       15.60304      246.88998        0.00000        0.00000
 VDWsCBR    5   8        0.98347       15.59262      245.22771        0.00000        0.00000
 VDWsCBR    5   9        0.95169       15.08341      237.22629        0.00000        0.00000
 VDWsCBR    5  10        0.93643       14.65233      225.59294        0.00002       -0.00000
 VDWsCBR    5  11        0.91968       14.88031      239.15389        0.00000        0.00000
 VDWsCBR    5  12        0.97091       15.42106      241.53340        0.00000        0.00000
 VDWsCBR    6   7        0.98850       15.74376      249.15797        0.00000        0.00000
 VDWsCBR    6   8        0.99130       15.73198      247.46074        0.00000        0.00000
 VDWsCBR    6   9        0.95886       15.21174      239.28431        0.00002        0.00000
 VDWsCBR    6  10        0.94387       14.78335      227.64866        0.00000        0.00000
 VDWsCBR    6  11        0.92751       15.02138      241.46362        0.00000       -0.00000
 VDWsCBR    6  12        0.97831       15.55378      243.65460        0.00000        0.00000
 VDWsCBR    7   8        0.08625        0.84729       11.62066        0.00039       -0.00000
 VDWsCBR    7   9        0.08228        0.80781       11.08415        0.00000        0.00000
 VDWsCBR    7  10        0.08210        0.78948       10.56049        0.02035       -0.00000
 VDWsCBR    7  11        0.08220        0.83425       11.65312        0.00000       -0.00000
 VDWsCBR    7  12        0.08422        0.82974       11.27138        0.00499       -0.00000
 VDWsCBR    8   9        0.08230        0.80334       10.94077        0.01856       -0.00000
 VDWsCBR    8  10        0.08211        0.78490       10.41755        0.00000       -0.00000
 VDWsCBR    8  11        0.08219        0.82950       11.50316        0.00529       -0.00000
 VDWsCBR    8  12        0.08423        0.82513       11.12392        0.00000       -0.00000
 VDWsCBR    9  10        0.07834        0.74844        9.93833        0.04374       -0.00000
 VDWsCBR    9  11        0.07834        0.79020       10.96264        0.00000       -0.00000
 VDWsCBR    9  12        0.08041        0.78725       10.61789        0.02014       -0.00000
 VDWsCBR   10  11        0.07823        0.77334       10.46388        0.02299       -0.00000
 VDWsCBR   10  12        0.08018        0.76880       10.10036        0.00000       -0.00000
 VDWsCBR   11  12        0.08020        0.81173       11.15410        0.00068       -0.00000
 Final Energy      -0.0000000 Hartree    -0.0000 kcal/mol
 STEP CPU TIME =     0.22 TOTAL CPU TIME =       20.8 (    0.3 MIN)
 TOTAL WALL CLOCK TIME=       21.2 SECONDS, CPU UTILIZATION IS  98.30%

                    *****************************
                    END OF dDsC DISPERSION ENERGY
                    *****************************

 FINAL ENERGY INCLUDING dDsC DISPERSION:  -194.988487350022     

     ---------------------------------------------------------------------
     PROPERTIES FOR THE WB97X    DFT FUNCTIONAL (ROHF TYPE) DENSITY MATRIX
     ---------------------------------------------------------------------

          -----------------
          ENERGY COMPONENTS
          -----------------

         WAVEFUNCTION NORMALIZATION =       1.0000000000

                ONE ELECTRON ENERGY =    -529.7681973628
                TWO ELECTRON ENERGY =     199.8154709553
           NUCLEAR REPULSION ENERGY =     134.9642390575
                                      ------------------
                       TOTAL ENERGY =    -194.9884873500

 ELECTRON-ELECTRON POTENTIAL ENERGY =     199.8154709553
  NUCLEUS-ELECTRON POTENTIAL ENERGY =    -723.2228006376
   NUCLEUS-NUCLEUS POTENTIAL ENERGY =     134.9642390575
                                      ------------------
             TOTAL POTENTIAL ENERGY =    -388.4430906248
               TOTAL KINETIC ENERGY =     193.4546032748
                 VIRIAL RATIO (V/T) =       2.0079289097

          ---------------------------------------
          MULLIKEN AND LOWDIN POPULATION ANALYSES
          ---------------------------------------

     ATOMIC MULLIKEN POPULATION IN EACH MOLECULAR ORBITAL

                      1          2          3          4          5

                  2.000000   2.000000   2.000000   2.000000   2.000000

    1             1.998632   0.000741   0.000004   0.000013   1.634186
    2             0.001119   1.994501   0.001336   0.001334   0.200661
    3             0.000311   0.000030  -0.000001   0.000001   0.115685
    4            -0.000009   0.000842   0.000004   0.000002   0.003610
    5            -0.000037   0.001948   0.000061   1.996078   0.026141
    6            -0.000014   0.001935   1.996081   0.000062   0.015921
    7             0.000000   0.000002  -0.000003   0.000879   0.000620
    8            -0.000000  -0.000001   0.000867  -0.000004   0.000401
    9            -0.000000  -0.000001   0.000000   0.000807   0.000778
   10            -0.000002  -0.000006   0.000801   0.000000   0.001985
   11             0.000000   0.000003  -0.000002   0.000831  -0.000079
   12             0.000000   0.000006   0.000852  -0.000003   0.000091

                      6          7          8          9         10

                  2.000000   2.000000   2.000000   2.000000   2.000000

    1             0.171175   0.020527   0.301415   0.665232   0.284783
    2             0.625321   0.177086   0.537056   0.528020   0.434757
    3             0.038981   0.004720   0.074154   0.202658   0.036209
    4             0.037822   0.000322   0.160675   0.192266   0.040715
    5             0.441262   0.639877   0.352374   0.144066   0.333517
    6             0.484674   0.693603   0.231143   0.119651   0.466556
    7             0.033122   0.064894   0.080917   0.020792   0.024988
    8             0.036861   0.070276   0.058022   0.063847   0.001541
    9             0.025365   0.084819   0.046616   0.001011   0.169837
   10             0.031018   0.101739   0.033461   0.001092   0.158147
   11             0.033968   0.065790   0.077412   0.056375   0.005735
   12             0.040431   0.076348   0.046753   0.004991   0.043215

                     11         12         13         14         15

                  2.000000   2.000000   2.000000   2.000000   2.000000

    1             0.361743   0.083580   0.173254   0.648381   0.328962
    2             0.313974   0.065466   0.029780   0.271607   0.187203
    3             0.006351   0.021215   0.056727   0.001899   0.001458
    4             0.000758   0.007371   0.013578   0.018925   0.046313
    5             0.191187   0.281194   0.870904   0.357381   0.465960
    6             0.620601   0.775978   0.039565   0.292431   0.324128
    7             0.044074   0.137403   0.160175   0.111144   0.091166
    8             0.002893   0.434192   0.002262   0.065215   0.022540
    9             0.030584   0.041213   0.061819   0.052017   0.255542
   10             0.157840   0.029584   0.020335   0.086326   0.163036
   11             0.000348   0.000147   0.566632   0.041061   0.000496
   12             0.269647   0.122657   0.004970   0.053612   0.113196

                     16         17

                  2.000000   2.000000

    1             0.695680   1.298320
    2             0.367944   0.177461
    3             0.063589   0.000026
    4             0.123935   0.205394
    5             0.328545   0.011772
    6             0.199931   0.207374
    7             0.034676   0.027245
    8             0.039506   0.028119
    9             0.037415   0.014715
   10             0.068728  -0.000063
   11             0.005111   0.000128
   12             0.034940   0.029509

     ATOMIC SPIN POPULATION (ALPHA MINUS BETA)
       ATOM         MULL.POP.                    LOW.POP.
    1 O             0.000000                     0.000000
    2 C             0.000000                     0.000000
    3 H             0.000000                     0.000000
    4 H             0.000000                     0.000000
    5 C             0.000000                     0.000000
    6 C             0.000000                     0.000000
    7 H             0.000000                     0.000000
    8 H             0.000000                     0.000000
    9 H             0.000000                     0.000000
   10 H             0.000000                     0.000000
   11 H             0.000000                     0.000000
   12 H             0.000000                     0.000000

               ----- POPULATIONS IN EACH AO -----
                             MULLIKEN      LOWDIN
              1  O  1  S      1.99775     1.99410
              2  O  1  S      0.90354     0.88257
              3  O  1  X      0.95445     0.90823
              4  O  1  Y      0.85788     0.81590
              5  O  1  Z      1.08669     1.05853
              6  O  1  S      1.01923     0.73347
              7  O  1  X      0.60001     0.66693
              8  O  1  Y      0.51464     0.60463
              9  O  1  Z      0.73243     0.78441
             10  C  2  S      1.99797     1.98723
             11  C  2  S      0.66874     0.54573
             12  C  2  X      0.72491     0.67366
             13  C  2  Y      0.58256     0.54478
             14  C  2  Z      0.70971     0.63967
             15  C  2  S      0.58827     0.40252
             16  C  2  X      0.24773     0.40420
             17  C  2  Y      0.10188     0.31786
             18  C  2  Z      0.29285     0.43240
             19  H  3  S      0.51762     0.48504
             20  H  3  S      0.10640     0.23137
             21  H  4  S      0.55479     0.54632
             22  H  4  S      0.29773     0.36833
             23  C  5  S      1.99769     1.98887
             24  C  5  S      0.66073     0.56232
             25  C  5  X      0.69617     0.64686
             26  C  5  Y      0.70969     0.64291
             27  C  5  Z      0.71168     0.64540
             28  C  5  S      0.67843     0.44253
             29  C  5  X      0.27539     0.43207
             30  C  5  Y      0.33672     0.47320
             31  C  5  Z      0.37573     0.49114
             32  C  6  S      1.99769     1.98893
             33  C  6  S      0.65930     0.56567
             34  C  6  X      0.69704     0.64372
             35  C  6  Y      0.70600     0.64356
             36  C  6  Z      0.71199     0.64649
             37  C  6  S      0.68635     0.44566
             38  C  6  X      0.29004     0.44383
             39  C  6  Y      0.34138     0.47358
             40  C  6  Z      0.37984     0.49343
             41  H  7  S      0.53941     0.51494
             42  H  7  S      0.29269     0.36517
             43  H  8  S      0.53832     0.51437
             44  H  8  S      0.28822     0.36453
             45  H  9  S      0.53998     0.51550
             46  H  9  S      0.28256     0.36065
             47  H 10  S      0.54337     0.51996
             48  H 10  S      0.31066     0.37402
             49  H 11  S      0.54312     0.51825
             50  H 11  S      0.31084     0.37190
             51  H 12  S      0.54040     0.51489
             52  H 12  S      0.30081     0.36778

          ----- MULLIKEN ATOMIC OVERLAP POPULATIONS -----
          (OFF-DIAGONAL ELEMENTS NEED TO BE MULTIPLIED BY 2)

             1           2           3           4           5

    1    8.4103270
    2    0.1794239   5.0009419
    3    0.2512072  -0.0348187   0.4033065
    4   -0.0471771   0.4005708  -0.0036644   0.6183851
    5   -0.0715017   0.2932715   0.0080753  -0.0547359   5.2090526
    6   -0.0669815   0.2843600  -0.0027255  -0.0641998  -0.0700392
    7    0.0016165  -0.0372587  -0.0001520   0.0049189   0.3796904
    8    0.0017485  -0.0370728  -0.0006358   0.0050692  -0.0061431
    9    0.0016880  -0.0331016  -0.0001522  -0.0040794   0.3821978
   10   -0.0005129  -0.0372787   0.0038219  -0.0039285   0.0052872
   11    0.0031463  -0.0362968  -0.0002380  -0.0000560   0.3684740
   12    0.0036411  -0.0281132  -0.0000123   0.0014211  -0.0013981

             6           7           8           9          10

    6    5.2791430
    7   -0.0066602   0.5362576
    8    0.3772058   0.0042136   0.5334806
    9    0.0052642  -0.0247240  -0.0000652   0.5211511
   10    0.3778862  -0.0000582  -0.0283545  -0.0001394   0.5634376
   11   -0.0007021  -0.0260616   0.0001958  -0.0253929  -0.0000619
   12    0.3570713   0.0003103  -0.0231035  -0.0001107  -0.0260778

            11          12

   11    0.5699294
   12    0.0010210   0.5565643

          TOTAL MULLIKEN AND LOWDIN ATOMIC POPULATIONS
       ATOM         MULL.POP.    CHARGE          LOW.POP.     CHARGE
    1 O             8.666625   -0.666625         8.448773   -0.448773
    2 C             5.914628    0.085372         5.948050    0.051950
    3 H             0.624012    0.375988         0.716407    0.283593
    4 H             0.852524    0.147476         0.914645    0.085355
    5 C             6.442231   -0.442231         6.325302   -0.325302
    6 C             6.469622   -0.469622         6.344869   -0.344869
    7 H             0.832093    0.167907         0.880111    0.119889
    8 H             0.826539    0.173461         0.878893    0.121107
    9 H             0.822536    0.177464         0.876149    0.123851
   10 H             0.854021    0.145979         0.893977    0.106023
   11 H             0.853957    0.146043         0.890152    0.109848
   12 H             0.841214    0.158786         0.882671    0.117329

          -------------------------------
          BOND ORDER AND VALENCE ANALYSIS     BOND ORDER THRESHOLD=0.050
          -------------------------------

                   BOND                       BOND                       BOND
  ATOM PAIR DIST  ORDER      ATOM PAIR DIST  ORDER      ATOM PAIR DIST  ORDER
    1   2  1.432  0.826        1   3  0.973  0.805        2   4  1.101  0.940
    2   5  1.514  0.949        2   6  1.520  0.926        5   7  1.093  0.951
    5   9  1.092  0.952        5  11  1.093  0.952        6   8  1.093  0.949
    6  10  1.095  0.956        6  12  1.094  0.945

                       TOTAL       BONDED        FREE
      ATOM            VALENCE     VALENCE     VALENCE
    1 O                 1.631       1.631       0.000
    2 C                 3.595       3.595       0.000
    3 H                 0.823       0.823       0.000
    4 H                 0.922       0.922       0.000
    5 C                 3.741       3.741      -0.000
    6 C                 3.731       3.731       0.000
    7 H                 0.937       0.937      -0.000
    8 H                 0.935       0.935       0.000
    9 H                 0.935       0.935       0.000
   10 H                 0.940       0.940       0.000
   11 H                 0.937       0.937       0.000
   12 H                 0.936       0.936       0.000

          -----------------------------------------
          ATOMIC SPIN DENSITY AT THE NUCLEUS (A.U.)
          -----------------------------------------
                            SPIN DENS    ALPHA DENS     BETA DENS
    1  O            8.0     0.0000000     145.62667     145.62667
    2  C            6.0     0.0000000      59.11299      59.11299
    3  H            1.0     0.0000000       0.21042       0.21042
    4  H            1.0     0.0000000       0.22278       0.22278
    5  C            6.0     0.0000000      59.12360      59.12360
    6  C            6.0     0.0000000      59.13084      59.13084
    7  H            1.0     0.0000000       0.21505       0.21505
    8  H            1.0     0.0000000       0.21467       0.21467
    9  H            1.0     0.0000000       0.21533       0.21533
   10  H            1.0     0.0000000       0.21662       0.21662
   11  H            1.0     0.0000000       0.21651       0.21651
   12  H            1.0     0.0000000       0.21527       0.21527

          ---------------------
          ELECTROSTATIC MOMENTS
          ---------------------

 POINT   1           X           Y           Z (BOHR)    CHARGE
                -0.014470    0.098444   -0.008800        0.00 (A.U.)
         DX          DY          DZ         /D/  (DEBYE)
     1.437277   -0.981346    1.109591    2.063976
 ...... END OF PROPERTY EVALUATION ......
 STEP CPU TIME =     0.02 TOTAL CPU TIME =       20.9 (    0.3 MIN)
 TOTAL WALL CLOCK TIME=       21.2 SECONDS, CPU UTILIZATION IS  98.35%
 Deallocating dDsC arrays
                580000  WORDS OF DYNAMIC MEMORY USED
 EXECUTION OF GAMESS TERMINATED NORMALLY Mon Oct  5 16:35:51 2015
 DDI: 263640 bytes (0.3 MB / 0 MWords) used by master data server.

 ----------------------------------------
 CPU timing information for all processes
 ========================================
 0: 13.932 + 6.931 = 20.864
 ----------------------------------------
 ddikick.x: exited gracefully.
unset echo
----- accounting info -----
Files used on the master node lcmd44.cluster were:
-rw-r--r-- 1 petragli lcmd   52246 Oct  5 16:35 /scratch/petragli/12426.slurm/G2-148.129.dat
-rw-r--r-- 1 petragli lcmd     853 Oct  5 16:35 /scratch/petragli/12426.slurm/G2-148.129.F05
-rw-r--r-- 1 petragli lcmd 2094080 Oct  5 16:35 /scratch/petragli/12426.slurm/G2-148.129.F10
-rw-r--r-- 1 petragli lcmd     853 Oct  5 16:35 /scratch/petragli/12426.slurm/G2-148.129.inp
ls: No match.
ls: No match.
ls: No match.
Mon Oct  5 16:35:54 CEST 2015
0.098u 0.018s 0:24.42 0.4%	0+0k 8+176io 0pf+0w
