----- GAMESS execution script 'rungms' -----
This job is running on host lcmd44.cluster
under operating system Linux at Wed Sep 30 13:00:20 CEST 2015
Available scratch disk space (Kbyte units) at beginning of the job is
Filesystem      1K-blocks  Used  Available Use% Mounted on
/dev/md1       1714180500 72548 1696691556   1% /scratch
GAMESS temporary binary files will be written to /scratch/petragli/10166.slurm
GAMESS supplementary output files will be written to /scratch/petragli/10166.slurm
Copying input file G2-148.129.inp to your run's scratch directory...
cp G2-148.129.inp /scratch/petragli/10166.slurm/G2-148.129.F05
unset echo
/home/petragli/wb97xddsc/gamess-all/gamess/ddikick.x /home/petragli/wb97xddsc/gamess-all/gamess/gamess.00.x G2-148.129 -ddi 1 1 lcmd44.cluster -scr /scratch/petragli/10166.slurm

 Distributed Data Interface kickoff program.
 Initiating 1 compute processes on 1 nodes to run the following command:
 /home/petragli/wb97xddsc/gamess-all/gamess/gamess.00.x G2-148.129 

          ******************************************************
          *         GAMESS VERSION =  5 DEC 2014 (R1)          *
          *             FROM IOWA STATE UNIVERSITY             *
          * M.W.SCHMIDT, K.K.BALDRIDGE, J.A.BOATZ, S.T.ELBERT, *
          *   M.S.GORDON, J.H.JENSEN, S.KOSEKI, N.MATSUNAGA,   *
          *          K.A.NGUYEN, S.J.SU, T.L.WINDUS,           *
          *       TOGETHER WITH M.DUPUIS, J.A.MONTGOMERY       *
          *         J.COMPUT.CHEM.  14, 1347-1363(1993)        *
          **************** 64 BIT INTEL VERSION ****************

  SINCE 1993, STUDENTS AND POSTDOCS WORKING AT IOWA STATE UNIVERSITY
  AND ALSO IN THEIR VARIOUS JOBS AFTER LEAVING ISU HAVE MADE IMPORTANT
  CONTRIBUTIONS TO THE CODE:
     IVANA ADAMOVIC, CHRISTINE AIKENS, YURI ALEXEEV, POOJA ARORA,
     ANDREY ASADCHEV, ROB BELL, PRADIPTA BANDYOPADHYAY, JONATHAN BENTZ,
     BRETT BODE, KURT BRORSEN, CALEB CARLIN, GALINA CHABAN, WEI CHEN,
     CHEOL HO CHOI, PAUL DAY, ALBERT DEFUSCO, NUWAN DESILVA, TIM DUDLEY,
     DMITRI FEDOROV, GRAHAM FLETCHER, MARK FREITAG, KURT GLAESEMANN,
     DAN KEMP, GRANT MERRILL, NORIYUKI MINEZAWA, JONATHAN MULLIN,
     TAKESHI NAGATA, SEAN NEDD, HEATHER NETZLOFF, BOSILJKA NJEGIC, RYAN OLSON,
     MIKE PAK, SPENCER PRUITT, LUKE ROSKOP, JIM SHOEMAKER, LYUDMILA SLIPCHENKO,
     TONY SMITH, SAROM SOK, JIE SONG, TETSUYA TAKETSUGU, SIMON WEBB,
     PENG XU, SOOHAENG YOO, FEDERICO ZAHARIEV

  ADDITIONAL CODE HAS BEEN PROVIDED BY COLLABORATORS IN OTHER GROUPS:
     IOWA STATE UNIVERSITY:
          JOE IVANIC, AARON WEST, LAIMUTIS BYTAUTAS, KLAUS RUEDENBERG
     UNIVERSITY OF TOKYO: KIMIHIKO HIRAO, TAKAHITO NAKAJIMA,
          TAKAO TSUNEDA, MUNEAKI KAMIYA, SUSUMU YANAGISAWA,
          KIYOSHI YAGI, MAHITO CHIBA, SEIKEN TOKURA, NAOAKI KAWAKAMI
     UNIVERSITY OF AARHUS: FRANK JENSEN
     UNIVERSITY OF IOWA: VISVALDAS KAIRYS, HUI LI
     NATIONAL INST. OF STANDARDS AND TECHNOLOGY: WALT STEVENS, DAVID GARMER
     UNIVERSITY OF PISA: BENEDETTA MENNUCCI, JACOPO TOMASI
     UNIVERSITY OF MEMPHIS: HENRY KURTZ, PRAKASHAN KORAMBATH
     UNIVERSITY OF ALBERTA: TOBY ZENG, MARIUSZ KLOBUKOWSKI
     UNIVERSITY OF NEW ENGLAND: MARK SPACKMAN
     MIE UNIVERSITY: HIROAKI UMEDA
     NAT. INST. OF ADVANCED INDUSTRIAL SCIENCE AND TECHNOLOGY: KAZUO KITAURA
     MICHIGAN STATE UNIVERSITY:
          KAROL KOWALSKI, MARTA WLOCH, JEFFREY GOUR, JESSE LUTZ,
          WEI LI, PIOTR PIECUCH
     UNIVERSITY OF SILESIA: MONIKA MUSIAL, STANISLAW KUCHARSKI
     FACULTES UNIVERSITAIRES NOTRE-DAME DE LA PAIX:
          OLIVIER QUINET, BENOIT CHAMPAGNE
     UNIVERSITY OF CALIFORNIA - SANTA BARBARA: BERNARD KIRTMAN
     INSTITUTE FOR MOLECULAR SCIENCE:
          KAZUYA ISHIMURA, MICHIO KATOUDA, AND SHIGERU NAGASE
     UNIVERSITY OF NOTRE DAME: ANNA POMOGAEVA, DAN CHIPMAN
     KYUSHU UNIVERSITY:
          HARUYUKI NAKANO,
          FENG LONG GU, JACEK KORCHOWIEC, MARCIN MAKOWSKI, AND YURIKO AOKI,
          HIROTOSHI MORI AND EISAKU MIYOSHI
     PENNSYLVANIA STATE UNIVERSITY:
          TZVETELIN IORDANOV, CHET SWALINA, JONATHAN SKONE,
          SHARON HAMMES-SCHIFFER
     WASEDA UNIVERSITY:
          MASATO KOBAYASHI, TOMOKO AKAMA, TSUGUKI TOUMA,
          TAKESHI YOSHIKAWA, YASUHIRO IKABATA, HIROMI NAKAI
     NANJING UNIVERSITY: SHUHUA LI
     UNIVERSITY OF NEBRASKA:
          PEIFENG SU, DEJUN SI, NANDUN THELLAMUREGE, YALI WANG, HUI LI
     UNIVERSITY OF ZURICH: ROBERTO PEVERATI, KIM BALDRIDGE
     N. COPERNICUS UNIVERSITY AND JACKSON STATE UNIVERSITY:
          MARIA BARYSZ
     UNIVERSITY OF COPENHAGEN: CASPER STEINMANN
     TOKYO INSTITUTE OF TECHNOLOGY: HIROYA NAKATA
     NAGOYA UNIVERSITY: YOSHIO NISHIMOTO, STEPHAN IRLE

 EXECUTION OF GAMESS BEGUN Wed Sep 30 13:00:21 2015

            ECHO OF THE FIRST FEW INPUT CARDS -
 INPUT CARD> $DFT NRAD=24 NLEB=110 DDSC=.t. $END                                            
 INPUT CARD> $BASIS GBASIS=N31 NGAUSS=6 $END                                                
 INPUT CARD> $CONTRL MAXIT=200 RUNTYP=ENERGY EXETYP=RUN SCFTYP=ROHF DFTTYP=wB97X            
 INPUT CARD>ICHARG=0 MULT=1 $END                                                            
 INPUT CARD> $SCF DIRSCF=.t. $END                                                           
 INPUT CARD> $SYSTEM MWORDS=8 $END                                                          
 INPUT CARD> $DATA                                                                          
 INPUT CARD> Should be setted!                                                              
 INPUT CARD> C1                                                                             
 INPUT CARD> O     8.00     0.027191     1.363691    -0.167516                              
 INPUT CARD> C     6.00    -0.000926     0.036459     0.370128                              
 INPUT CARD> H     1.00     0.859465     1.775647     0.121307                              
 INPUT CARD> H     1.00     0.007371     0.082145     1.470506                              
 INPUT CARD> C     6.00    -1.313275    -0.563514    -0.088979                              
 INPUT CARD> C     6.00     1.200721    -0.764480    -0.104920                              
 INPUT CARD> H     1.00    -1.334005    -0.607253    -1.181009                              
 INPUT CARD> H     1.00     1.202843    -0.807817    -1.197189                              
 INPUT CARD> H     1.00    -2.147812     0.054993     0.247676                              
 INPUT CARD> H     1.00     2.136462    -0.299324     0.223164                              
 INPUT CARD> H     1.00    -1.438709    -1.574275     0.308340                              
 INPUT CARD> H     1.00     1.177736    -1.784436     0.289967                              
 INPUT CARD> $END                                                                           
    8000000 WORDS OF MEMORY AVAILABLE

     BASIS OPTIONS
     -------------
     GBASIS=N31          IGAUSS=       6      POLAR=NONE    
     NDFUNC=       0     NFFUNC=       0     DIFFSP=       F
     NPFUNC=       0      DIFFS=       F     BASNAM=        


     RUN TITLE
     ---------
  Should be setted!                                                              

 THE POINT GROUP OF THE MOLECULE IS C1      
 THE ORDER OF THE PRINCIPAL AXIS IS     0

 ATOM      ATOMIC                      COORDINATES (BOHR)
           CHARGE         X                   Y                   Z
 O           8.0     0.0513835393        2.5770023219       -0.3165593386
 C           6.0    -0.0017498863        0.0688975198        0.6994405004
 H           1.0     1.6241533460        3.3554862809        0.2292369904
 H           1.0     0.0139291703        0.1552315413        2.7788534033
 C           6.0    -2.4817298965       -1.0648870502       -0.1681459287
 C           6.0     2.2690336777       -1.4446577231       -0.1982700506
 H           1.0    -2.5209039163       -1.1475417752       -2.2317833990
 H           1.0     2.2730436762       -1.5265527782       -2.2623591655
 H           1.0    -4.0587761531        0.1039217012        0.4680397737
 H           1.0     4.0373277632       -0.5656403415        0.4217188103
 H           1.0    -2.7187657861       -2.9749483793        0.5826781111
 H           1.0     2.2255983259       -3.3720950826        0.5479581755

          INTERNUCLEAR DISTANCES (ANGS.)
          ------------------------------

                1 O          2 C          3 H          4 H          5 C     

   1 O       0.0000000    1.4322697 *  0.9725258 *  2.0798724 *  2.3488585 *
   2 C       1.4322697 *  0.0000000    1.9562616 *  1.1013573 *  1.5142677 *
   3 H       0.9725258 *  1.9562616 *  0.0000000    2.3268758 *  3.1994833  
   4 H       2.0798724 *  1.1013573 *  2.3268758 *  0.0000000    2.1431227 *
   5 C       2.3488585 *  1.5142677 *  3.1994833    2.1431227 *  0.0000000  
   6 C       2.4310909 *  1.5202399 *  2.5729126 *  2.1500756 *  2.5220661 *
   7 H       2.6008927 *  2.1441760 *  3.4907807    3.0504247    1.0931022 *
   8 H       2.6754123 *  2.1490334 *  2.9207236 *  3.0557785    2.7601926 *
   9 H       2.5721028 *  2.1504552 *  3.4670354    2.4780767 *  1.0919430 *
  10 H       2.7142723 *  2.1685885 *  2.4385653 *  2.4968799 *  3.4738905  
  11 H       3.3176718    2.1599773 *  4.0667631    2.4870674 *  1.0932675 *
  12 H       3.3828609    2.1705595 *  3.5782585    2.4995102 *  2.7998904 *

                6 C          7 H          8 H          9 H         10 H     

   1 O       2.4310909 *  2.6008927 *  2.6754123 *  2.5721028 *  2.7142723 *
   2 C       1.5202399 *  2.1441760 *  2.1490334 *  2.1504552 *  2.1685885 *
   3 H       2.5729126 *  3.4907807    2.9207236 *  3.4670354    2.4385653 *
   4 H       2.1500756 *  3.0504247    3.0557785    2.4780767 *  2.4968799 *
   5 C       2.5220661 *  1.0931022 *  2.7601926 *  1.0919430 *  3.4738905  
   6 C       0.0000000    2.7581740 *  1.0931304 *  3.4653331    1.0952719 *
   7 H       2.7581740 *  0.0000000    2.5448154 *  1.7725666 *  3.7564163  
   8 H       1.0931304 *  2.5448154 *  0.0000000    3.7495286    1.7741511 *
   9 H       3.4653331    1.7725666 *  3.7495286    0.0000000    4.2989702  
  10 H       1.0952719 *  3.7564163    1.7741511 *  4.2989702    0.0000000  
  11 H       2.7916200 *  1.7788353 *  3.1355817    1.7779262 *  3.7966568  
  12 H       1.0939718 *  3.1398046    1.7793392 *  3.8005996    1.7689477 *

               11 H         12 H     

   1 O       3.3176718    3.3828609  
   2 C       2.1599773 *  2.1705595 *
   3 H       4.0667631    3.5782585  
   4 H       2.4870674 *  2.4995102 *
   5 C       1.0932675 *  2.7998904 *
   6 C       2.7916200 *  1.0939718 *
   7 H       1.7788353 *  3.1398046  
   8 H       3.1355817    1.7793392 *
   9 H       1.7779262 *  3.8005996  
  10 H       3.7966568    1.7689477 *
  11 H       0.0000000    2.6249361 *
  12 H       2.6249361 *  0.0000000  

  * ... LESS THAN  3.000


     ATOMIC BASIS SET
     ----------------
 THE CONTRACTED PRIMITIVE FUNCTIONS HAVE BEEN UNNORMALIZED
 THE CONTRACTED BASIS FUNCTIONS ARE NOW NORMALIZED TO UNITY

  SHELL TYPE  PRIMITIVE        EXPONENT          CONTRACTION COEFFICIENT(S)

 O         

      1   S       1          5484.6716600    0.001831074430
      1   S       2           825.2349460    0.013950172200
      1   S       3           188.0469580    0.068445078098
      1   S       4            52.9645000    0.232714335992
      1   S       5            16.8975704    0.470192897984
      1   S       6             5.7996353    0.358520852987

      2   L       7            15.5396162   -0.110777549525    0.070874268231
      2   L       8             3.5999336   -0.148026262701    0.339752839147
      2   L       9             1.0137618    1.130767015354    0.727158577316

      3   L      10             0.2700058    1.000000000000    1.000000000000

 C         

      4   S      11          3047.5248800    0.001834737132
      4   S      12           457.3695180    0.014037322813
      4   S      13           103.9486850    0.068842622264
      4   S      14            29.2101553    0.232184443216
      4   S      15             9.2866630    0.467941348435
      4   S      16             3.1639270    0.362311985337

      5   L      17             7.8682723   -0.119332419775    0.068999066591
      5   L      18             1.8812885   -0.160854151696    0.316423960957
      5   L      19             0.5442493    1.143456437840    0.744308290898

      6   L      20             0.1687145    1.000000000000    1.000000000000

 H         

      7   S      21            18.7311370    0.033494604338
      7   S      22             2.8253944    0.234726953484
      7   S      23             0.6401217    0.813757326146

      8   S      24             0.1612778    1.000000000000

 H         

      9   S      25            18.7311370    0.033494604338
      9   S      26             2.8253944    0.234726953484
      9   S      27             0.6401217    0.813757326146

     10   S      28             0.1612778    1.000000000000

 C         

     11   S      29          3047.5248800    0.001834737132
     11   S      30           457.3695180    0.014037322813
     11   S      31           103.9486850    0.068842622264
     11   S      32            29.2101553    0.232184443216
     11   S      33             9.2866630    0.467941348435
     11   S      34             3.1639270    0.362311985337

     12   L      35             7.8682723   -0.119332419775    0.068999066591
     12   L      36             1.8812885   -0.160854151696    0.316423960957
     12   L      37             0.5442493    1.143456437840    0.744308290898

     13   L      38             0.1687145    1.000000000000    1.000000000000

 C         

     14   S      39          3047.5248800    0.001834737132
     14   S      40           457.3695180    0.014037322813
     14   S      41           103.9486850    0.068842622264
     14   S      42            29.2101553    0.232184443216
     14   S      43             9.2866630    0.467941348435
     14   S      44             3.1639270    0.362311985337

     15   L      45             7.8682723   -0.119332419775    0.068999066591
     15   L      46             1.8812885   -0.160854151696    0.316423960957
     15   L      47             0.5442493    1.143456437840    0.744308290898

     16   L      48             0.1687145    1.000000000000    1.000000000000

 H         

     17   S      49            18.7311370    0.033494604338
     17   S      50             2.8253944    0.234726953484
     17   S      51             0.6401217    0.813757326146

     18   S      52             0.1612778    1.000000000000

 H         

     19   S      53            18.7311370    0.033494604338
     19   S      54             2.8253944    0.234726953484
     19   S      55             0.6401217    0.813757326146

     20   S      56             0.1612778    1.000000000000

 H         

     21   S      57            18.7311370    0.033494604338
     21   S      58             2.8253944    0.234726953484
     21   S      59             0.6401217    0.813757326146

     22   S      60             0.1612778    1.000000000000

 H         

     23   S      61            18.7311370    0.033494604338
     23   S      62             2.8253944    0.234726953484
     23   S      63             0.6401217    0.813757326146

     24   S      64             0.1612778    1.000000000000

 H         

     25   S      65            18.7311370    0.033494604338
     25   S      66             2.8253944    0.234726953484
     25   S      67             0.6401217    0.813757326146

     26   S      68             0.1612778    1.000000000000

 H         

     27   S      69            18.7311370    0.033494604338
     27   S      70             2.8253944    0.234726953484
     27   S      71             0.6401217    0.813757326146

     28   S      72             0.1612778    1.000000000000

 TOTAL NUMBER OF BASIS SET SHELLS             =   28
 NUMBER OF CARTESIAN GAUSSIAN BASIS FUNCTIONS =   52
 NUMBER OF ELECTRONS                          =   34
 CHARGE OF MOLECULE                           =    0
 SPIN MULTIPLICITY                            =    1
 NUMBER OF OCCUPIED ORBITALS (ALPHA)          =   17
 NUMBER OF OCCUPIED ORBITALS (BETA )          =   17
 TOTAL NUMBER OF ATOMS                        =   12
 THE NUCLEAR REPULSION ENERGY IS      134.9642390575

     LEBEDEV GRID-BASED DFT OPTIONS
     ------------------------------
     DFTTYP=WB97X   
     NRAD  =      24     NLEB  =     110
     NRAD0 =      24     NLEB0 =     110
     SWOFF =    5.00E-03 (PURE SCF -> DFT)
     SWITCH=    3.00E-04 (COARSE -> TIGHT GRID)
     THRESH=    0.00E+00 GTHRE=    1.00E+00

     LC/CAM PARAMETERS
     -----------------
     ALPHAC =.15771  BETAC =.84229  CAMMU = 0.300  CAMVWN =  0.00  CAMLYP =  0.00

 GRIMME'S EMPIRICAL DISPERSION CORRECTION= F
 TURNING ON dDsC DISPERSION CORRECTION

     $CONTRL OPTIONS
     ---------------
 SCFTYP=ROHF         RUNTYP=ENERGY       EXETYP=RUN     
 MPLEVL=       0     CITYP =NONE         CCTYP =NONE         VBTYP =NONE    
 DFTTYP=WB97X        TDDFT =NONE    
 MULT  =       1     ICHARG=       0     NZVAR =       0     COORD =UNIQUE  
 PP    =NONE         RELWFN=NONE         LOCAL =NONE         NUMGRD=       F
 ISPHER=      -1     NOSYM =       0     MAXIT =     200     UNITS =ANGS    
 PLTORB=       F     MOLPLT=       F     AIMPAC=       F     FRIEND=        
 NPRINT=       7     IREST =       0     GEOM  =INPUT   
 NORMF =       0     NORMP =       0     ITOL  =      20     ICUT  =       9
 INTTYP=BEST         GRDTYP=BEST         QMTTOL= 1.0E-06

     $SYSTEM OPTIONS
     ---------------
  REPLICATED MEMORY=     8000000 WORDS (ON EVERY NODE).
 DISTRIBUTED MEMDDI=           0 MILLION WORDS IN AGGREGATE,
 MEMDDI DISTRIBUTED OVER   1 PROCESSORS IS           0 WORDS/PROCESSOR.
 TOTAL MEMORY REQUESTED ON EACH PROCESSOR=     8000000 WORDS.
 TIMLIM=      525600.00 MINUTES, OR     365.0 DAYS.
 PARALL= F  BALTYP=  DLB     KDIAG=    0  COREFL= F
 MXSEQ2=     300 MXSEQ3=     150  mem10=         0

          ----------------
          PROPERTIES INPUT
          ----------------

     MOMENTS            FIELD           POTENTIAL          DENSITY
 IEMOM =       1   IEFLD =       0   IEPOT =       0   IEDEN =       0
 WHERE =COMASS     WHERE =NUCLEI     WHERE =NUCLEI     WHERE =NUCLEI  
 OUTPUT=BOTH       OUTPUT=BOTH       OUTPUT=BOTH       OUTPUT=BOTH    
 IEMINT=       0   IEFINT=       0                     IEDINT=       0
                                                       MORB  =       0
          EXTRAPOLATION IN EFFECT
          DIIS IN EFFECT
 ORBITAL PRINTING OPTION: NPREO=     1    52     2     1

     -------------------------------
     INTEGRAL TRANSFORMATION OPTIONS
     -------------------------------
     NWORD  =            0
     CUTOFF = 1.0E-09     MPTRAN =       0
     DIRTRF =       T     AOINTS =DUP     

          ----------------------
          INTEGRAL INPUT OPTIONS
          ----------------------
 NOPK  =       1 NORDER=       0 SCHWRZ=       T

     ------------------------------------------
     THE POINT GROUP IS C1 , NAXIS= 0, ORDER= 1
     ------------------------------------------

     DIMENSIONS OF THE SYMMETRY SUBSPACES ARE
 A   =   52

 ..... DONE SETTING UP THE RUN .....
 STEP CPU TIME =     0.01 TOTAL CPU TIME =        0.0 (    0.0 MIN)
 TOTAL WALL CLOCK TIME=        0.0 SECONDS, CPU UTILIZATION IS  50.00%
 Tang and Toennies damping function for C6

          ********************
          1 ELECTRON INTEGRALS
          ********************
 ...... END OF ONE-ELECTRON INTEGRALS ......
 STEP CPU TIME =     0.00 TOTAL CPU TIME =        0.0 (    0.0 MIN)
 TOTAL WALL CLOCK TIME=        0.1 SECONDS, CPU UTILIZATION IS  16.67%

          -------------
          GUESS OPTIONS
          -------------
          GUESS =HUCKEL            NORB  =       0          NORDER=       0
          MIX   =       F          PRTMO =       F          PUNMO =       F
          TOLZ  = 1.0E-08          TOLE  = 1.0E-05
          SYMDEN=       F          PURIFY=       F

 INITIAL GUESS ORBITALS GENERATED BY HUCKEL   ROUTINE.
 HUCKEL GUESS REQUIRES     31192 WORDS.

 SYMMETRIES FOR INITIAL GUESS ORBITALS FOLLOW.  ALPHA SET(S).
    17 ORBITALS ARE OCCUPIED (    4 CORE ORBITALS).
     5=A        6=A        7=A        8=A        9=A       10=A       11=A   
    12=A       13=A       14=A       15=A       16=A       17=A       18=A   
    19=A       20=A       21=A       22=A       23=A       24=A       25=A   
    26=A       27=A   

 SYMMETRIES FOR INITIAL GUESS ORBITALS FOLLOW.   BETA SET(S).
    17 ORBITALS ARE OCCUPIED (    4 CORE ORBITALS).
     5=A        6=A        7=A        8=A        9=A       10=A       11=A   
    12=A       13=A       14=A       15=A       16=A       17=A       18=A   
    19=A       20=A       21=A       22=A       23=A       24=A       25=A   
    26=A       27=A   
 ...... END OF INITIAL ORBITAL SELECTION ......
 STEP CPU TIME =     0.01 TOTAL CPU TIME =        0.0 (    0.0 MIN)
 TOTAL WALL CLOCK TIME=        0.1 SECONDS, CPU UTILIZATION IS  28.57%

          ***************************************
          *       dDsC density dependent        *
          *        DISPERSION CORRECTION        *
          *    - Stephan Steinmann   and  -     *
          *    -   Clemence Corminboeuf   -     *
          ***************************************


 =======================================================================
 dDsC PERFORMS THE FOLLOWING CALCULATIONS:
 1. HF/DFT FOR ATOMS
 2. SUPERPOSITION OF ATOMIC DENSITIES
 3. Energy of the Molecule
 4. Classical Hirshfeld dominant analysis
 5. Dispersion correction
 =======================================================================

          -------------------------
          ATOM  1 WITH OWN BASIS
          -------------------------

     ------------------------------------------
     THE POINT GROUP IS C1 , NAXIS= 0, ORDER= 1
     ------------------------------------------

     DIMENSIONS OF THE SYMMETRY SUBSPACES ARE
 A   =    9
 ...... END OF ONE-ELECTRON INTEGRALS ......
 STEP CPU TIME =     0.00 TOTAL CPU TIME =        0.0 (    0.0 MIN)
 TOTAL WALL CLOCK TIME=        0.1 SECONDS, CPU UTILIZATION IS  28.57%

          -------------
          GUESS OPTIONS
          -------------
          GUESS =HUCKEL            NORB  =       0          NORDER=       0
          MIX   =       F          PRTMO =       F          PUNMO =       F
          TOLZ  = 1.0E-08          TOLE  = 1.0E-05
          SYMDEN=       F          PURIFY=       F

 INITIAL GUESS ORBITALS GENERATED BY HUCKEL   ROUTINE.
 HUCKEL GUESS REQUIRES      1489 WORDS.

 SYMMETRIES FOR INITIAL GUESS ORBITALS FOLLOW.  ALPHA SET(S).
     5 ORBITALS ARE OCCUPIED (    1 CORE ORBITALS).
     2=A        3=A        4=A        5=A        6=A        7=A        8=A   
     9=A   

 SYMMETRIES FOR INITIAL GUESS ORBITALS FOLLOW.   BETA SET(S).
     3 ORBITALS ARE OCCUPIED (    1 CORE ORBITALS).
     2=A        3=A        4=A        5=A        6=A        7=A        8=A   
     9=A   
 ...... END OF INITIAL ORBITAL SELECTION ......
 STEP CPU TIME =     0.00 TOTAL CPU TIME =        0.0 (    0.0 MIN)
 TOTAL WALL CLOCK TIME=        0.1 SECONDS, CPU UTILIZATION IS  28.57%

                    ----------------------
                    AO INTEGRAL TECHNOLOGY
                    ----------------------
     S,P,L SHELL ROTATED AXIS INTEGRALS, REPROGRAMMED BY
        KAZUYA ISHIMURA (IMS) AND JOSE SIERRA (SYNSTAR).
     S,P,D,L SHELL ROTATED AXIS INTEGRALS PROGRAMMED BY
        KAZUYA ISHIMURA (INSTITUTE FOR MOLECULAR SCIENCE).
     S,P,D,F,G SHELL TO TOTAL QUARTET ANGULAR MOMENTUM SUM 5,
        ERIC PROGRAM BY GRAHAM FLETCHER (ELORET AND NASA ADVANCED
        SUPERCOMPUTING DIVISION, AMES RESEARCH CENTER).
     S,P,D,F,G,L SHELL GENERAL RYS QUADRATURE PROGRAMMED BY
        MICHEL DUPUIS (PACIFIC NORTHWEST NATIONAL LABORATORY).
  ...... END OF TWO-ELECTRON INTEGRALS .....
 STEP CPU TIME =     0.00 TOTAL CPU TIME =        0.0 (    0.0 MIN)
 TOTAL WALL CLOCK TIME=        0.1 SECONDS, CPU UTILIZATION IS  25.00%
  ...... END OF TWO-ELECTRON INTEGRALS .....
 STEP CPU TIME =     0.00 TOTAL CPU TIME =        0.0 (    0.0 MIN)
 TOTAL WALL CLOCK TIME=        0.1 SECONDS, CPU UTILIZATION IS  25.00%

          ---------------------------
              U-WB97X SCF CALCULATION
          ---------------------------
         DENSITY MATRIX CONVERGENCE THRESHOLD=  2.00E-05
     COARSE -> FINE DFT GRID SWITCH THRESHOLD=  3.00E-04 (SWITCH IN $DFT)
                   HF -> DFT SWITCH THRESHOLD=  5.00E-03 (SWOFF IN $DFT)

 DIRECT SCF CALCULATION, SCHWRZ=T   FDIFF=T

     EXCHANGE FUNCTIONAL   =WB97X     
     CORRELATION FUNCTIONAL=WB97X     
     DFT THRESHOLD         =.379E-06
 FOR AN EULER-MACLAURIN QUADRATURE USING  24 RADIAL POINTS:
 SMALLEST GAUSSIAN PRIMITIVE EXPONENT=        0.2700058226 OF TYPE -P-
 ON ATOM NUMBER   1 HAS RADIAL NORMALIZATION=  1.000866
  LARGEST GAUSSIAN PRIMITIVE EXPONENT=     5484.6716600000 OF TYPE -S-
 ON ATOM NUMBER   1 HAS RADIAL NORMALIZATION=  0.998502

          **************************************************
          *                                                *
          * WARNING: QUESTIONABLE SELECTION OF RADIAL GRID *
          *                                                *
          **************************************************

 THIS RUN HAS REQUESTED NRAD=  24 IN $DFT OR $TDDFT
 ATOM=    1 HAS LARGE EXPONENT=          5484.671659999999974
 RECOMMEND NRAD ABOVE  50 FOR ZETA'S ABOVE 1E+4
 RECOMMEND NRAD ABOVE  75 FOR ZETA'S ABOVE 1E+5
 RECOMMEND NRAD ABOVE 125 FOR ZETA'S ABOVE 1E+6
 ATOM=    1 HAS SMALL EXPONENT=             0.270005822609600
 RECOMMEND NRAD ABOVE  75 FOR ZETA'S BELOW 1E-3
 RECOMMEND NRAD ABOVE 100 FOR ZETA'S BELOW 1E-4
 RECOMMEND NRAD ABOVE 125 FOR ZETA'S BELOW 1E-5
 DFT IS SWITCHED OFF, PERFORMING PURE SCF UNTIL SWOFF THRESHOLD IS REACHED.

                                                                                NONZERO     BLOCKS
 ITER EX      TOTAL ENERGY        E CHANGE  DENSITY CHANGE    DIIS ERROR      INTEGRALS    SKIPPED
   1  0      -74.7477446278   -74.7477446278   0.102551608   0.935069038            213          0
          * * *   INITIATING DIIS PROCEDURE   * * *
   2  1      -74.7791341877    -0.0313895599   0.018798668   0.031623084            213          0
   3  2      -74.7801122547    -0.0009780670   0.008816456   0.013208444            213          0
   4  3      -74.7802593706    -0.0001471159   0.008285329   0.006606126            213          0
   5  4      -74.7803078427    -0.0000484721   0.002084276   0.001590481            213          0
 CONVERGED TO SWOFF, SO DFT CALCULATION IS NOW SWITCHED ON.
          * * *   INITIATING DIIS PROCEDURE   * * *
   6  5      -75.0401554916    -0.2598476488   0.020913531   0.097876230            213          0
   7  6      -75.0406462064    -0.0004907148   0.004491335   0.004933576            213          0
   8  7      -75.0406577120    -0.0000115057   0.001078150   0.001159371            213          0
   9  8      -75.0406585888    -0.0000008768   0.000382023   0.000496237            213          0
  10  9      -75.0406587119    -0.0000001231   0.000092508   0.000067086            213          0
  11 10      -75.0406587152    -0.0000000033   0.000006105   0.000004625            213          0
  12 11      -75.0406587153    -0.0000000001   0.000005419   0.000004338            213          0

          -----------------
          DENSITY CONVERGED
          -----------------
     TIME TO FORM FOCK OPERATORS=       1.3 SECONDS (       0.1 SEC/ITER)
     FOCK TIME ON FIRST ITERATION=       0.0, LAST ITERATION=       0.2
     TIME TO SOLVE SCF EQUATIONS=       0.0 SECONDS (       0.0 SEC/ITER)

 FINAL U-WB97X ENERGY IS      -75.0406587153 AFTER  12 ITERATIONS
 DFT EXCHANGE + CORRELATION ENERGY =        -6.0827621504
 TOTAL ELECTRON NUMBER             =         8.0003309582

          --------------------
          SPIN SZ   =    1.000
          S-SQUARED =    2.003
          --------------------
 ...... END OF UHF CALCULATION ......
 STEP CPU TIME =     1.28 TOTAL CPU TIME =        1.3 (    0.0 MIN)
 TOTAL WALL CLOCK TIME=        1.4 SECONDS, CPU UTILIZATION IS  93.53%

          -------------------------
          ATOM  2 WITH OWN BASIS
          -------------------------

     ------------------------------------------
     THE POINT GROUP IS C1 , NAXIS= 0, ORDER= 1
     ------------------------------------------

     DIMENSIONS OF THE SYMMETRY SUBSPACES ARE
 A   =    9
 ...... END OF ONE-ELECTRON INTEGRALS ......
 STEP CPU TIME =     0.00 TOTAL CPU TIME =        1.3 (    0.0 MIN)
 TOTAL WALL CLOCK TIME=        1.4 SECONDS, CPU UTILIZATION IS  91.55%

          -------------
          GUESS OPTIONS
          -------------
          GUESS =HUCKEL            NORB  =       0          NORDER=       0
          MIX   =       F          PRTMO =       F          PUNMO =       F
          TOLZ  = 1.0E-08          TOLE  = 1.0E-05
          SYMDEN=       F          PURIFY=       F

 INITIAL GUESS ORBITALS GENERATED BY HUCKEL   ROUTINE.
 HUCKEL GUESS REQUIRES      1489 WORDS.

 SYMMETRIES FOR INITIAL GUESS ORBITALS FOLLOW.  ALPHA SET(S).
     4 ORBITALS ARE OCCUPIED (    1 CORE ORBITALS).
     2=A        3=A        4=A        5=A        6=A        7=A        8=A   
     9=A   

 SYMMETRIES FOR INITIAL GUESS ORBITALS FOLLOW.   BETA SET(S).
     2 ORBITALS ARE OCCUPIED (    1 CORE ORBITALS).
     2=A        3=A        4=A        5=A        6=A        7=A        8=A   
     9=A   
 ...... END OF INITIAL ORBITAL SELECTION ......
 STEP CPU TIME =     0.00 TOTAL CPU TIME =        1.3 (    0.0 MIN)
 TOTAL WALL CLOCK TIME=        1.4 SECONDS, CPU UTILIZATION IS  91.55%
  ...... END OF TWO-ELECTRON INTEGRALS .....
 STEP CPU TIME =     0.00 TOTAL CPU TIME =        1.3 (    0.0 MIN)
 TOTAL WALL CLOCK TIME=        1.4 SECONDS, CPU UTILIZATION IS  91.55%
  ...... END OF TWO-ELECTRON INTEGRALS .....
 STEP CPU TIME =     0.00 TOTAL CPU TIME =        1.3 (    0.0 MIN)
 TOTAL WALL CLOCK TIME=        1.4 SECONDS, CPU UTILIZATION IS  91.55%

          ---------------------------
              U-WB97X SCF CALCULATION
          ---------------------------
         DENSITY MATRIX CONVERGENCE THRESHOLD=  2.00E-05
     COARSE -> FINE DFT GRID SWITCH THRESHOLD=  3.00E-04 (SWITCH IN $DFT)
                   HF -> DFT SWITCH THRESHOLD=  5.00E-03 (SWOFF IN $DFT)

 DIRECT SCF CALCULATION, SCHWRZ=T   FDIFF=T
 DFT IS SWITCHED OFF, PERFORMING PURE SCF UNTIL SWOFF THRESHOLD IS REACHED.

                                                                                NONZERO     BLOCKS
 ITER EX      TOTAL ENERGY        E CHANGE  DENSITY CHANGE    DIIS ERROR      INTEGRALS    SKIPPED
   1  0      -37.6441520045   -37.6441520045   0.238838377   0.547002967            213          0
          * * *   INITIATING DIIS PROCEDURE   * * *
   2  1      -37.6777870129    -0.0336350084   0.009332375   0.012607298            213          0
   3  2      -37.6778282687    -0.0000412557   0.004687130   0.002615432            213          0
 CONVERGED TO SWOFF, SO DFT CALCULATION IS NOW SWITCHED ON.
          * * *   INITIATING DIIS PROCEDURE   * * *
   4  3      -37.8312412639    -0.1534129952   0.029326838   0.072921047            213          0
   5  4      -37.8317658824    -0.0005246185   0.009152711   0.005256211            213          0
   6  5      -37.8317934161    -0.0000275337   0.003782321   0.001623532            213          0
   7  6      -37.8317958171    -0.0000024011   0.000073419   0.000073736            213          0
   8  7      -37.8317958209    -0.0000000038   0.000022005   0.000010935            213          0
   9  8      -37.8317958213    -0.0000000004   0.000008248   0.000005601            213          0
  10  9      -37.8317958215    -0.0000000002   0.000698197   0.000005532            213          0
  11 10      -37.8317958013     0.0000000202   0.004107187   0.000005334            213          0
  12 11      -37.8317956919     0.0000001094   0.001153972   0.000004909            213          0
  13 12      -37.8317956646     0.0000000273   0.001381428   0.000005767            213          0
  14 13      -37.8317956975    -0.0000000329   0.003386692   0.000007464            213          0
  15 14      -37.8317956215     0.0000000760   0.001626306   0.000008170            213          0
  16 15      -37.8317955850     0.0000000365   0.000082139   0.000076391            213          0
  17 16      -37.8317955869    -0.0000000018   0.000234122   0.000073918            213          0
  18 17      -37.8317955910    -0.0000000041   0.003989802   0.000073833            213          0
  19 18      -37.8317956757    -0.0000000847   0.003124206   0.000071756            213          0
  20 19      -37.8317957608    -0.0000000851   0.001761956   0.000034617            213          0
  21 20      -37.8317957168     0.0000000440   0.000455669   0.000024363            213          0
  22 21      -37.8317957056     0.0000000113   0.002356186   0.000025730            213          0
  23 22      -37.8317957805    -0.0000000749   0.002079351   0.000027015            213          0
  24 23      -37.8317957520     0.0000000285   0.001027597   0.000031518            213          0
  25 24      -37.8317957704    -0.0000000185   0.001397456   0.000028916            213          0
  26 25      -37.8317958080    -0.0000000376   0.017155388   0.000036265            213          0
  27 26      -37.8317959598    -0.0000001518   0.007972929   0.000097133            213          0
  28 27      -37.8317959613    -0.0000000014   0.021694395   0.000192014            213          0
  29 28      -37.8317958297     0.0000001315   0.000726394   0.000009152            213          0
  30 29      -37.8317958165     0.0000000132   0.022183772   0.000004362            213          0
  31 30      -37.8317959700    -0.0000001535   0.003026404   0.000178231            213          0
  32 31      -37.8317959359     0.0000000342   0.023143588   0.000248406            213          0
  33 32      -37.8317958102     0.0000001257   0.015492856   0.000064769            213          0
  34 33      -37.8317959878    -0.0000001776   0.002851329   0.000006054            213          0
  35 34      -37.8317959661     0.0000000217   0.003868630   0.000002722            213          0
  36 35      -37.8317959817    -0.0000000156   0.003497012   0.000003878            213          0
  37 36      -37.8317959856    -0.0000000039   0.001331798   0.000008425            213          0
  38 37      -37.8317959853     0.0000000002   0.002455415   0.000002327            213          0
  39 38      -37.8317959843     0.0000000010   0.000859012   0.000006959            213          0
  40 39      -37.8317959836     0.0000000007   0.001356566   0.000001630            213          0
  41 40      -37.8317959855    -0.0000000019   0.000503984   0.000001509            213          0
  42 41      -37.8317959868    -0.0000000012   0.000316800   0.000003277            213          0
  43 42      -37.8317959857     0.0000000010   0.000343875   0.000002659            213          0
  44 43      -37.8317959859    -0.0000000002   0.000040762   0.000000380            213          0
  45 44      -37.8317959859    -0.0000000000   0.000010252   0.000000325            213          0
  46 45      -37.8317959859    -0.0000000000   0.000332379   0.000000277            213          0
  47 46      -37.8317959852     0.0000000007   0.000045370   0.000000026            213          0
  48 47      -37.8317959851     0.0000000001   0.000190881   0.000000045            213          0
  49 48      -37.8317959857    -0.0000000006   0.000154199   0.000000123            213          0
  50 49      -37.8317959853     0.0000000004   0.000015484   0.000000014            213          0
  51 50      -37.8317959853    -0.0000000000   0.000005499   0.000000018            213          0

          -----------------
          DENSITY CONVERGED
          -----------------
     TIME TO FORM FOCK OPERATORS=       8.2 SECONDS (       0.2 SEC/ITER)
     FOCK TIME ON FIRST ITERATION=       0.0, LAST ITERATION=       0.2
     TIME TO SOLVE SCF EQUATIONS=       0.0 SECONDS (       0.0 SEC/ITER)

 FINAL U-WB97X ENERGY IS      -37.8317959853 AFTER  51 ITERATIONS
 DFT EXCHANGE + CORRELATION ENERGY =        -3.6430601703
 TOTAL ELECTRON NUMBER             =         6.0001838533

          --------------------
          SPIN SZ   =    1.000
          S-SQUARED =    2.003
          --------------------
 ...... END OF UHF CALCULATION ......
 STEP CPU TIME =     8.26 TOTAL CPU TIME =        9.6 (    0.2 MIN)
 TOTAL WALL CLOCK TIME=        9.8 SECONDS, CPU UTILIZATION IS  97.35%

          -------------------------
          ATOM  3 WITH OWN BASIS
          -------------------------

     ------------------------------------------
     THE POINT GROUP IS C1 , NAXIS= 0, ORDER= 1
     ------------------------------------------

     DIMENSIONS OF THE SYMMETRY SUBSPACES ARE
 A   =    2
 ...... END OF ONE-ELECTRON INTEGRALS ......
 STEP CPU TIME =     0.00 TOTAL CPU TIME =        9.6 (    0.2 MIN)
 TOTAL WALL CLOCK TIME=        9.9 SECONDS, CPU UTILIZATION IS  96.96%

          -------------
          GUESS OPTIONS
          -------------
          GUESS =HUCKEL            NORB  =       0          NORDER=       0
          MIX   =       F          PRTMO =       F          PUNMO =       F
          TOLZ  = 1.0E-08          TOLE  = 1.0E-05
          SYMDEN=       F          PURIFY=       F

 INITIAL GUESS ORBITALS GENERATED BY HUCKEL   ROUTINE.
 HUCKEL GUESS REQUIRES       689 WORDS.

 SYMMETRIES FOR INITIAL GUESS ORBITALS FOLLOW.  ALPHA SET(S).
     1 ORBITALS ARE OCCUPIED (    0 CORE ORBITALS).
     1=A        2=A   
 ...... END OF INITIAL ORBITAL SELECTION ......
 STEP CPU TIME =     0.01 TOTAL CPU TIME =        9.6 (    0.2 MIN)
 TOTAL WALL CLOCK TIME=        9.9 SECONDS, CPU UTILIZATION IS  97.06%
  ...... END OF TWO-ELECTRON INTEGRALS .....
 STEP CPU TIME =     0.00 TOTAL CPU TIME =        9.6 (    0.2 MIN)
 TOTAL WALL CLOCK TIME=        9.9 SECONDS, CPU UTILIZATION IS  97.06%
  ...... END OF TWO-ELECTRON INTEGRALS .....
 STEP CPU TIME =     0.00 TOTAL CPU TIME =        9.6 (    0.2 MIN)
 TOTAL WALL CLOCK TIME=        9.9 SECONDS, CPU UTILIZATION IS  97.06%

          ---------------------------
              U-WB97X SCF CALCULATION
          ---------------------------
         DENSITY MATRIX CONVERGENCE THRESHOLD=  2.00E-05
     COARSE -> FINE DFT GRID SWITCH THRESHOLD=  3.00E-04 (SWITCH IN $DFT)
                   HF -> DFT SWITCH THRESHOLD=  5.00E-03 (SWOFF IN $DFT)

 DIRECT SCF CALCULATION, SCHWRZ=T   FDIFF=T
 DFT IS SWITCHED OFF, PERFORMING PURE SCF UNTIL SWOFF THRESHOLD IS REACHED.

                                                                                NONZERO     BLOCKS
 ITER EX      TOTAL ENERGY        E CHANGE  DENSITY CHANGE    DIIS ERROR      INTEGRALS    SKIPPED
          * * *   INITIATING DIIS PROCEDURE   * * *
   1  0       -0.4641827651    -0.4641827651   0.178441695   0.177483467              6          0
   2  1       -0.4947088078    -0.0305260427   0.089352122   0.058032615              6          0
   3  2       -0.4982329092    -0.0035241014   0.000000000   0.000000000              6          0
 CONVERGED TO SWOFF, SO DFT CALCULATION IS NOW SWITCHED ON.
          * * *   INITIATING DIIS PROCEDURE   * * *
   4  3                 NaN              NaN   0.001284055           NaN              6          0
   5  4                 NaN              NaN   1.747959684           NaN              6          0
   6  5                 NaN              NaN   0.000000000           NaN              6          0
   7  6                 NaN              NaN   0.000000000           NaN              0          6

          -----------------
          DENSITY CONVERGED
          -----------------
     TIME TO FORM FOCK OPERATORS=       0.6 SECONDS (       0.1 SEC/ITER)
     FOCK TIME ON FIRST ITERATION=       0.0, LAST ITERATION=       0.2
     TIME TO SOLVE SCF EQUATIONS=       0.0 SECONDS (       0.0 SEC/ITER)

 FINAL U-WB97X ENERGY IS                 NaN AFTER   7 ITERATIONS
 DFT EXCHANGE + CORRELATION ENERGY =                  NaN
 TOTAL ELECTRON NUMBER             =         1.0000230540

          --------------------
          SPIN SZ   =    0.500
          S-SQUARED =    0.750
          --------------------
 ...... END OF UHF CALCULATION ......
 STEP CPU TIME =     0.63 TOTAL CPU TIME =       10.2 (    0.2 MIN)
 TOTAL WALL CLOCK TIME=       10.5 SECONDS, CPU UTILIZATION IS  96.96%

          -------------------------
          ATOM  4 WITH OWN BASIS
          -------------------------

          -------------------------
          ATOM  5 WITH OWN BASIS
          -------------------------

          -------------------------
          ATOM  6 WITH OWN BASIS
          -------------------------

          -------------------------
          ATOM  7 WITH OWN BASIS
          -------------------------

          -------------------------
          ATOM  8 WITH OWN BASIS
          -------------------------

          -------------------------
          ATOM  9 WITH OWN BASIS
          -------------------------

          -------------------------
          ATOM 10 WITH OWN BASIS
          -------------------------

          -------------------------
          ATOM 11 WITH OWN BASIS
          -------------------------

          -------------------------
          ATOM 12 WITH OWN BASIS
          -------------------------

     ------------------------------------------
     THE POINT GROUP IS C1 , NAXIS= 0, ORDER= 1
     ------------------------------------------

     DIMENSIONS OF THE SYMMETRY SUBSPACES ARE
 A   =   52
 STEP CPU TIME =     0.00 TOTAL CPU TIME =       10.2 (    0.2 MIN)
 TOTAL WALL CLOCK TIME=       10.6 SECONDS, CPU UTILIZATION IS  96.59%

                       **********************
                       END OF SAD PREPARATION
                       **********************


          ********************
          1 ELECTRON INTEGRALS
          ********************
 ...... END OF ONE-ELECTRON INTEGRALS ......
 STEP CPU TIME =     0.00 TOTAL CPU TIME =       10.2 (    0.2 MIN)
 TOTAL WALL CLOCK TIME=       10.6 SECONDS, CPU UTILIZATION IS  96.59%

          -------------
          GUESS OPTIONS
          -------------
          GUESS =HUCKEL            NORB  =       0          NORDER=       0
          MIX   =       F          PRTMO =       F          PUNMO =       F
          TOLZ  = 1.0E-08          TOLE  = 1.0E-05
          SYMDEN=       F          PURIFY=       F

 INITIAL GUESS ORBITALS GENERATED BY HUCKEL   ROUTINE.
 HUCKEL GUESS REQUIRES     31192 WORDS.

 SYMMETRIES FOR INITIAL GUESS ORBITALS FOLLOW.  ALPHA SET(S).
    17 ORBITALS ARE OCCUPIED (    4 CORE ORBITALS).
     5=A        6=A        7=A        8=A        9=A       10=A       11=A   
    12=A       13=A       14=A       15=A       16=A       17=A       18=A   
    19=A       20=A       21=A       22=A       23=A       24=A       25=A   
    26=A       27=A   

 SYMMETRIES FOR INITIAL GUESS ORBITALS FOLLOW.   BETA SET(S).
    17 ORBITALS ARE OCCUPIED (    4 CORE ORBITALS).
     5=A        6=A        7=A        8=A        9=A       10=A       11=A   
    12=A       13=A       14=A       15=A       16=A       17=A       18=A   
    19=A       20=A       21=A       22=A       23=A       24=A       25=A   
    26=A       27=A   
 ...... END OF INITIAL ORBITAL SELECTION ......
 STEP CPU TIME =     0.00 TOTAL CPU TIME =       10.2 (    0.2 MIN)
 TOTAL WALL CLOCK TIME=       10.6 SECONDS, CPU UTILIZATION IS  96.50%

          --------------------------------
          2 ELECTRON LC EXCHANGE INTEGRALS
          --------------------------------

 DIRECT SCF METHOD SKIPS INTEGRAL STORAGE ON DISK.
 DIRECT TRANSFORMATION SKIPS AO INTEGRAL STORAGE ON DISK.
  ...... END OF TWO-ELECTRON INTEGRALS .....
 STEP CPU TIME =     0.00 TOTAL CPU TIME =       10.2 (    0.2 MIN)
 TOTAL WALL CLOCK TIME=       10.6 SECONDS, CPU UTILIZATION IS  96.50%

          --------------------
          2 ELECTRON INTEGRALS
          --------------------

 DIRECT SCF METHOD SKIPS INTEGRAL STORAGE ON DISK.
 DIRECT TRANSFORMATION SKIPS AO INTEGRAL STORAGE ON DISK.
  ...... END OF TWO-ELECTRON INTEGRALS .....
 STEP CPU TIME =     0.00 TOTAL CPU TIME =       10.2 (    0.2 MIN)
 TOTAL WALL CLOCK TIME=       10.6 SECONDS, CPU UTILIZATION IS  96.50%

          ---------------------------
             RO-WB97X SCF CALCULATION
          ---------------------------

     NUCLEAR ENERGY =       134.9642390575
     MAXIT =200     NPUNCH=  2     MULT=  1
     EXTRAP=T  DAMP=F  SHIFT=F  RSTRCT=F  DIIS=T  SOSCF=F
         DENSITY MATRIX CONVERGENCE THRESHOLD=  2.00E-05
     COARSE -> FINE DFT GRID SWITCH THRESHOLD=  3.00E-04 (SWITCH IN $DFT)
                   HF -> DFT SWITCH THRESHOLD=  5.00E-03 (SWOFF IN $DFT)
     ROHF CANONICALIZATION PARAMETERS
             C-C     O-O     V-V
     ALPHA -0.5000  0.5000  1.5000
     BETA   1.5000  0.5000 -0.5000
     MEMORY REQUIRED FOR UHF/ROHF ITERS=    176083 WORDS.

 DIRECT SCF CALCULATION, SCHWRZ=T   FDIFF=T
 SCHWARZ INEQUALITY OVERHEAD:      1376 INTEGRALS, T=        0.00
 DFT IS SWITCHED OFF, PERFORMING PURE SCF UNTIL SWOFF THRESHOLD IS REACHED.

                                                                                NONZERO     BLOCKS
 ITER EX      TOTAL ENERGY        E CHANGE  DENSITY CHANGE    DIIS ERROR      INTEGRALS    SKIPPED
          * * *   INITIATING DIIS PROCEDURE   * * *
   1  0     -192.6012230246  -192.6012230246   0.363583065   0.487242116         923754       6146
   2  1     -193.0053898760    -0.4041668514   0.060731786   0.087855821         921842       7105
   3  2     -193.0310945463    -0.0257046703   0.024947829   0.030153419         917366       8405
   4  3     -193.0349289618    -0.0038344155   0.011538454   0.012011293         910835      10372
   5  4     -193.0352921012    -0.0003631394   0.003188696   0.004236809         904467      11517
 CONVERGED TO SWOFF, SO DFT CALCULATION IS NOW SWITCHED ON.
          * * *   INITIATING DIIS PROCEDURE   * * *
   6  5     -194.2387330095    -1.2034409082   0.068248634   0.063112365         920979       6116
   7  6     -194.2454991163    -0.0067661069   0.019048724   0.015604669         914033       8952
   8  7     -194.2463399501    -0.0008408337   0.006557695   0.009062229         907034      10510
   9  8     -194.2466562216    -0.0003162716   0.001502113   0.002022216         900599      12134
  10  9     -194.2466605456    -0.0000043240   0.000638059   0.000591895         877935      15901
  11 10     -194.2466615277    -0.0000009821   0.000108014   0.000046959         875084      16354
  12 11     -194.2466615430    -0.0000000153   0.000019353   0.000012372         851983      20226
  13 12     -194.2466615440    -0.0000000010   0.000006934   0.000003700         819952      25309

          -----------------
          DENSITY CONVERGED
          -----------------
     TIME TO FORM FOCK OPERATORS=      17.6 SECONDS (       1.4 SEC/ITER)
     FOCK TIME ON FIRST ITERATION=       0.1, LAST ITERATION=       2.0
     TIME TO SOLVE SCF EQUATIONS=       0.0 SECONDS (       0.0 SEC/ITER)

 FINAL RO-WB97X ENERGY IS     -194.2466615440 AFTER  13 ITERATIONS
 DFT EXCHANGE + CORRELATION ENERGY =       -19.1557750084
 TOTAL ELECTRON NUMBER             =        33.9925158993

          --------------------
          SPIN SZ   =    0.000
          S-SQUARED =    0.000
          --------------------

          ------------
          EIGENVECTORS
          ------------

                      1          2          3          4          5
                  -19.2009   -10.3118   -10.2521   -10.2427    -1.1491
                     A          A          A          A          A   
    1  O  1  S    0.995233  -0.000005  -0.000018  -0.000008  -0.198013
    2  O  1  S    0.028319  -0.000693  -0.000487  -0.000284   0.429565
    3  O  1  X    0.001425   0.000060  -0.000103   0.000159   0.091296
    4  O  1  Y   -0.001026   0.000323   0.000136   0.000172  -0.058114
    5  O  1  Z    0.001225  -0.000080   0.000005   0.000041   0.073895
    6  O  1  S   -0.017122   0.005084   0.000902   0.000268   0.451111
    7  O  1  X   -0.001768  -0.000315   0.000300  -0.000756   0.040883
    8  O  1  Y    0.003497  -0.001997  -0.000350  -0.000891  -0.044108
    9  O  1  Z   -0.002371   0.000208   0.000074  -0.000230   0.040675
   10  C  2  S   -0.000134   0.995729  -0.001008  -0.000972  -0.080768
   11  C  2  S   -0.001498   0.037215  -0.000887  -0.000815   0.156674
   12  C  2  X    0.000109   0.000086  -0.000330   0.000369   0.008454
   13  C  2  Y    0.000466   0.000215   0.000140   0.000133   0.093478
   14  C  2  Z   -0.000014  -0.000180   0.000166   0.000148  -0.038406
   15  C  2  S    0.009769  -0.039715   0.005859   0.005901   0.052294
   16  C  2  X   -0.000177   0.000354   0.003820  -0.003995   0.015130
   17  C  2  Y    0.003609   0.002578  -0.001977  -0.001558  -0.018593
   18  C  2  Z   -0.002198   0.002978  -0.000766  -0.000492   0.016873
   19  H  3  S    0.000515   0.000067  -0.000300   0.000337   0.133989
   20  H  3  S    0.002424   0.000823  -0.000069   0.000669   0.002021
   21  H  4  S   -0.000540  -0.000029  -0.000206  -0.000222   0.025603
   22  H  4  S   -0.000483   0.005623   0.000235   0.000142  -0.002956
   23  C  5  S    0.000017   0.000911  -0.001829   0.995462  -0.018341
   24  C  5  S   -0.000105  -0.001286  -0.001003   0.036410   0.033164
   25  C  5  X   -0.000253  -0.000125  -0.000264   0.000120   0.018382
   26  C  5  Y   -0.000278  -0.000159   0.000108  -0.000038   0.014972
   27  C  5  Z   -0.000031  -0.000104   0.000063  -0.000042   0.003365
   28  C  5  S   -0.001994   0.010813   0.002575  -0.032504   0.031157
   29  C  5  X   -0.000613   0.004998   0.001504  -0.001801   0.006041
   30  C  5  Y   -0.000413   0.002371  -0.000526  -0.000664   0.009035
   31  C  5  Z    0.000019   0.001228  -0.000445  -0.000236  -0.001217
   32  C  6  S   -0.000002   0.000935   0.995452   0.001643  -0.019338
   33  C  6  S   -0.000402  -0.001419   0.036281  -0.000893   0.038188
   34  C  6  X    0.000210   0.000104   0.000033   0.000273  -0.015387
   35  C  6  Y   -0.000374  -0.000222  -0.000064   0.000084   0.018597
   36  C  6  Z   -0.000016  -0.000088  -0.000030   0.000066   0.003735
   37  C  6  S   -0.000767   0.010962  -0.032288   0.002545   0.010069
   38  C  6  X    0.000547  -0.004447   0.001504  -0.001550   0.000597
   39  C  6  Y   -0.000177   0.003332  -0.000647  -0.000333   0.004067
   40  C  6  Z    0.000097   0.001100  -0.000304  -0.000555  -0.007362
   41  H  7  S    0.000059  -0.000450  -0.000238  -0.000313   0.006372
   42  H  7  S    0.000020   0.000139  -0.000790   0.005891   0.001507
   43  H  8  S   -0.000006  -0.000497  -0.000346  -0.000256   0.007643
   44  H  8  S   -0.000074   0.000004   0.005828  -0.000832   0.000024
   45  H  9  S    0.000031  -0.000353  -0.000030  -0.000368   0.006318
   46  H  9  S   -0.000046   0.000026   0.000962   0.005414   0.002225
   47  H 10  S    0.000081  -0.000360  -0.000421   0.000007   0.007827
   48  H 10  S   -0.000671  -0.000195   0.005393   0.000876   0.006626
   49  H 11  S   -0.000009  -0.000314  -0.000211  -0.000374   0.004888
   50  H 11  S    0.000476   0.000218  -0.000644   0.005564  -0.001023
   51  H 12  S   -0.000065  -0.000311  -0.000362  -0.000207   0.005969
   52  H 12  S    0.000497   0.000355   0.005716  -0.000667   0.000031

                      6          7          8          9         10
                   -0.9058    -0.8210    -0.7069    -0.6252    -0.5653
                     A          A          A          A          A   
    1  O  1  S    0.064968   0.004713   0.031255   0.025043  -0.012282
    2  O  1  S   -0.143141  -0.010955  -0.071042  -0.057258   0.028766
    3  O  1  X   -0.066408   0.053911  -0.116872   0.210108  -0.167343
    4  O  1  Y   -0.078633   0.021331  -0.204168   0.264366  -0.055411
    5  O  1  Z   -0.013250  -0.002303   0.057578   0.091971   0.101267
    6  O  1  S   -0.190124  -0.011528  -0.104168  -0.088713   0.042190
    7  O  1  X   -0.027575   0.022299  -0.053780   0.102475  -0.097798
    8  O  1  Y   -0.018169   0.005017  -0.091161   0.129192  -0.024482
    9  O  1  Z   -0.010382  -0.001439   0.029026   0.053055   0.060054
   10  C  2  S   -0.122006   0.009362  -0.124039  -0.019583   0.033118
   11  C  2  S    0.233385  -0.018847   0.248923   0.032859  -0.066723
   12  C  2  X   -0.009448   0.166603   0.004483   0.053238  -0.093451
   13  C  2  Y   -0.092309  -0.021768   0.085168  -0.139527   0.203137
   14  C  2  Z   -0.014878   0.001857   0.085421   0.272520   0.163979
   15  C  2  S    0.219377  -0.025784   0.309906   0.041304  -0.085826
   16  C  2  X    0.001174   0.038005   0.013064   0.052450  -0.046207
   17  C  2  Y   -0.013788   0.000278   0.008771  -0.031008   0.088817
   18  C  2  Z   -0.007653   0.006089   0.030132   0.119846   0.075790
   19  H  3  S   -0.086561   0.026171  -0.126854   0.182236  -0.077108
   20  H  3  S   -0.018546   0.011165  -0.056119   0.094250  -0.039530
   21  H  4  S    0.066938  -0.005374   0.138421   0.157203   0.064319
   22  H  4  S    0.011145  -0.004111   0.058067   0.092953   0.052557
   23  C  5  S   -0.109892   0.136446   0.086191  -0.009791  -0.008123
   24  C  5  S    0.208293  -0.259125  -0.161292   0.012257   0.015998
   25  C  5  X    0.052704   0.010350   0.103868  -0.028624  -0.192338
   26  C  5  Y    0.009850  -0.012350   0.075593  -0.093205   0.121537
   27  C  5  Z    0.015624  -0.007076   0.059901   0.110447   0.093424
   28  C  5  S    0.165990  -0.249214  -0.205368   0.060083   0.024824
   29  C  5  X    0.003887   0.006683   0.019271   0.002629  -0.081388
   30  C  5  Y   -0.008646   0.001291   0.020456  -0.031697   0.056513
   31  C  5  Z    0.006191  -0.002452   0.019450   0.050110   0.041063
   32  C  6  S   -0.115224  -0.143401   0.061128   0.015591  -0.019354
   33  C  6  S    0.217661   0.269549  -0.112076  -0.029860   0.035417
   34  C  6  X   -0.046637   0.026866  -0.083628  -0.020320   0.278508
   35  C  6  Y    0.015893   0.003114   0.073819  -0.010384  -0.064232
   36  C  6  Z    0.016155   0.004301   0.060371   0.140688   0.054769
   37  C  6  S    0.177365   0.280436  -0.164928  -0.052303   0.074023
   38  C  6  X   -0.004244   0.004781  -0.011709  -0.009872   0.113642
   39  C  6  Y   -0.005419   0.004825   0.008948  -0.008544  -0.028182
   40  C  6  Z    0.005029   0.000800   0.018200   0.049025   0.035902
   41  H  7  S    0.060378  -0.087044  -0.097211  -0.051208  -0.048243
   42  H  7  S    0.013789  -0.022649  -0.043313  -0.036983  -0.034962
   43  H  8  S    0.064002   0.093185  -0.078107  -0.089842  -0.014299
   44  H  8  S    0.014060   0.022916  -0.037172  -0.059606  -0.011703
   45  H  9  S    0.055461  -0.097182  -0.074901   0.008290   0.151087
   46  H  9  S    0.009335  -0.028597  -0.032541   0.001493   0.104494
   47  H 10  S    0.060111   0.107353  -0.059884   0.000849   0.154698
   48  H 10  S    0.011742   0.036038  -0.029469   0.010418   0.108860
   49  H 11  S    0.062921  -0.088060  -0.096427   0.077208  -0.024570
   50  H 11  S    0.011546  -0.022515  -0.048104   0.049619  -0.016655
   51  H 12  S    0.067260   0.095671  -0.070406   0.020461   0.061495
   52  H 12  S    0.014312   0.028242  -0.038988   0.019356   0.035226

                     11         12         13         14         15
                   -0.5431    -0.4961    -0.4819    -0.4663    -0.4555
                     A          A          A          A          A   
    1  O  1  S    0.042899  -0.019669   0.026348   0.026865  -0.009073
    2  O  1  S   -0.097071   0.043461  -0.055363  -0.062030   0.024090
    3  O  1  X    0.170218  -0.077332   0.103060   0.046076  -0.131650
    4  O  1  Y   -0.129188  -0.067702   0.173786  -0.127719   0.160404
    5  O  1  Z    0.040598  -0.045106   0.015379   0.298324   0.054493
    6  O  1  S   -0.162160   0.086976  -0.136401  -0.094935   0.011085
    7  O  1  X    0.101715  -0.050441   0.054771   0.028051  -0.089258
    8  O  1  Y   -0.084163  -0.042104   0.115546  -0.085258   0.115819
    9  O  1  Z    0.020032  -0.026217   0.004071   0.203306   0.032907
   10  C  2  S   -0.006514   0.008844  -0.016505   0.007384  -0.000883
   11  C  2  S    0.015952  -0.017031   0.028718  -0.013963  -0.003799
   12  C  2  X    0.215691   0.109200  -0.045396   0.083025  -0.201573
   13  C  2  Y    0.095722   0.016898  -0.101471   0.218311  -0.025249
   14  C  2  Z   -0.029957  -0.038483   0.040660   0.125629   0.118921
   15  C  2  S   -0.000859  -0.028246   0.065652  -0.029596   0.023038
   16  C  2  X    0.146313   0.050015  -0.015912   0.082453  -0.104617
   17  C  2  Y    0.050532  -0.005181  -0.011940   0.112639   0.014055
   18  C  2  Z    0.002635  -0.019740   0.006113   0.100483   0.053057
   19  H  3  S    0.032757  -0.059922   0.105164   0.011620   0.001252
   20  H  3  S    0.018845  -0.039766   0.073110  -0.013155   0.016956
   21  H  4  S   -0.006621  -0.034492   0.044679   0.080297   0.082922
   22  H  4  S   -0.014840  -0.025011   0.036882   0.061816   0.077662
   23  C  5  S   -0.017626  -0.000560  -0.005642   0.008484  -0.006291
   24  C  5  S    0.028317   0.000461   0.012905  -0.019726   0.012701
   25  C  5  X   -0.142380   0.005555   0.003657  -0.099840   0.263126
   26  C  5  Y   -0.036226  -0.070291   0.368599  -0.117188  -0.098038
   27  C  5  Z   -0.108443  -0.227325  -0.198211  -0.198676  -0.158404
   28  C  5  S    0.112774   0.005181   0.020706   0.016548   0.008066
   29  C  5  X   -0.050078   0.006142  -0.005550  -0.019708   0.139067
   30  C  5  Y   -0.016662  -0.022320   0.163808  -0.075711  -0.054488
   31  C  5  Z   -0.026972  -0.120766  -0.094067  -0.098795  -0.094889
   32  C  6  S    0.007476   0.002864  -0.002552   0.005296   0.013052
   33  C  6  S   -0.011246  -0.004678   0.004580  -0.005458  -0.026059
   34  C  6  X    0.076030   0.008763  -0.052724  -0.066277   0.237193
   35  C  6  Y    0.328610  -0.086456  -0.014157  -0.186830   0.091360
   36  C  6  Z    0.016971   0.366304  -0.003109  -0.158091  -0.085755
   37  C  6  S   -0.048597  -0.020863   0.010407  -0.029048  -0.039530
   38  C  6  X    0.038608   0.003797  -0.024327  -0.047161   0.110946
   39  C  6  Y    0.149594  -0.045901  -0.015791  -0.124860   0.033656
   40  C  6  Z   -0.008050   0.192663   0.006305  -0.096447  -0.035733
   41  H  7  S    0.082634   0.145730   0.130533   0.134085   0.120913
   42  H  7  S    0.057830   0.103400   0.101481   0.111667   0.097186
   43  H  8  S   -0.024082  -0.241069   0.008929   0.114710   0.048736
   44  H  8  S   -0.022151  -0.177144   0.012610   0.092673   0.055641
   45  H  9  S    0.046867  -0.074605   0.104204  -0.046348  -0.207994
   46  H  9  S    0.021990  -0.055530   0.078569  -0.026774  -0.166593
   47  H 10  S    0.127909   0.051205  -0.030769  -0.140110   0.147752
   48  H 10  S    0.109342   0.040542  -0.024078  -0.109159   0.141660
   49  H 11  S    0.018275  -0.007835  -0.282200   0.026796   0.005751
   50  H 11  S   -0.007122   0.005206  -0.250108   0.019099   0.001436
   51  H 12  S   -0.196189   0.142694   0.003876   0.082633  -0.106231
   52  H 12  S   -0.142033   0.115651  -0.014026   0.065369  -0.097121

                     16         17         18         19         20
                   -0.4163    -0.3643     0.1644     0.2150     0.2397
                     A          A          A          A          A   
    1  O  1  S    0.054568   0.000367   0.061066   0.053968  -0.021382
    2  O  1  S   -0.124021   0.002599  -0.120039  -0.084797   0.064542
    3  O  1  X    0.306847  -0.259612  -0.193287  -0.139672  -0.014617
    4  O  1  Y   -0.173816   0.203433  -0.033976   0.046101  -0.131411
    5  O  1  Z    0.216261   0.463005  -0.062307  -0.144810   0.005442
    6  O  1  S   -0.212399  -0.022321  -0.656719  -0.700950   0.082810
    7  O  1  X    0.210204  -0.203367  -0.327688  -0.223891  -0.053905
    8  O  1  Y   -0.146869   0.167250  -0.095357   0.094823  -0.165635
    9  O  1  Z    0.160581   0.361886  -0.095846  -0.215770   0.049335
   10  C  2  S   -0.010394  -0.002067   0.031182  -0.040694   0.026891
   11  C  2  S    0.038338   0.012757  -0.013082   0.080812  -0.039066
   12  C  2  X   -0.234977   0.083194  -0.009060   0.003356  -0.012194
   13  C  2  Y    0.072565  -0.080603   0.095441   0.156416  -0.140824
   14  C  2  Z   -0.185159  -0.171746  -0.138976  -0.001687  -0.075284
   15  C  2  S   -0.033242  -0.015560  -0.702691   0.494571  -0.345498
   16  C  2  X   -0.030518   0.006597   0.039719   0.039627   0.084484
   17  C  2  Y    0.013973   0.036917   0.205103   0.347404  -0.059746
   18  C  2  Z   -0.042568  -0.028436  -0.238329   0.120035  -0.254090
   19  H  3  S    0.132697   0.002368   0.093304   0.071586  -0.005608
   20  H  3  S    0.088392   0.001156   0.955994   0.693014   0.111293
   21  H  4  S   -0.129725  -0.164610   0.004442   0.025126   0.047957
   22  H  4  S   -0.147760  -0.198706   0.556389  -0.296855   0.592055
   23  C  5  S   -0.025812  -0.003640   0.041323  -0.073235  -0.017338
   24  C  5  S    0.049218   0.007499  -0.060810   0.082579  -0.006135
   25  C  5  X    0.211763   0.001549   0.035284  -0.083878  -0.007627
   26  C  5  Y    0.080143   0.012080   0.053423  -0.028025  -0.194841
   27  C  5  Z    0.088086   0.040432  -0.008557  -0.076972  -0.069748
   28  C  5  S    0.166184   0.033630  -0.474841   1.248546   0.514206
   29  C  5  X    0.126937   0.024719   0.246813  -0.315022   0.078515
   30  C  5  Y    0.021718  -0.013943   0.204976  -0.000573  -0.636905
   31  C  5  Z    0.067040  -0.006093  -0.002023  -0.327839  -0.158936
   32  C  6  S    0.015317  -0.029772   0.058866  -0.065949   0.005031
   33  C  6  S   -0.026378   0.061098  -0.070998   0.081478  -0.011118
   34  C  6  X    0.146550  -0.134793  -0.115129   0.041330  -0.135321
   35  C  6  Y   -0.104963   0.141609   0.038036  -0.055879  -0.238948
   36  C  6  Z    0.061688   0.065184  -0.019705  -0.094055  -0.079860
   37  C  6  S   -0.078513   0.187677  -0.854503   1.102612  -0.012009
   38  C  6  X    0.077209  -0.113116  -0.445491   0.199040  -0.461829
   39  C  6  Y   -0.057001   0.027297   0.180759  -0.119129  -0.842595
   40  C  6  Z   -0.004007   0.049830   0.000673  -0.345802  -0.181579
   41  H  7  S   -0.050756  -0.041308  -0.032564  -0.038053  -0.040530
   42  H  7  S   -0.071758  -0.083136   0.116155  -0.874938  -0.493831
   43  H  8  S   -0.069371  -0.032300  -0.014564  -0.030581  -0.021219
   44  H  8  S   -0.087552  -0.079607   0.246700  -0.855453  -0.346651
   45  H  9  S   -0.043914   0.030436   0.006367  -0.059096   0.062519
   46  H  9  S   -0.063313   0.064043   0.268734  -0.706536   0.553097
   47  H 10  S    0.068460   0.011773  -0.001560  -0.062245   0.078251
   48  H 10  S    0.095390   0.007699   0.651221  -0.520919   1.175027
   49  H 11  S   -0.018119   0.004683   0.038012   0.051764  -0.058272
   50  H 11  S   -0.049026  -0.003974   0.541699  -0.287804  -0.897759
   51  H 12  S    0.074909  -0.052890   0.045272   0.055535  -0.070531
   52  H 12  S    0.082859  -0.106493   0.594755  -0.303631  -0.984800

                     21         22         23         24         25
                    0.2418     0.2581     0.2688     0.2942     0.2954
                     A          A          A          A          A   
    1  O  1  S   -0.009571   0.021661   0.002432   0.024923   0.003889
    2  O  1  S    0.008263  -0.036752  -0.012474  -0.039106  -0.010372
    3  O  1  X    0.110135  -0.023845   0.026776  -0.029538   0.043811
    4  O  1  Y    0.078370  -0.098087   0.047495   0.055009  -0.007790
    5  O  1  Z    0.035809  -0.033539  -0.044576  -0.071670  -0.007031
    6  O  1  S    0.197408  -0.306706   0.043013  -0.403082   0.001598
    7  O  1  X    0.193590  -0.053082   0.046870  -0.068251  -0.001388
    8  O  1  Y    0.152429  -0.113120   0.040857   0.187006  -0.007097
    9  O  1  Z    0.124921  -0.078238  -0.103742  -0.145181   0.005194
   10  C  2  S    0.048794   0.002835  -0.096529  -0.017273  -0.014232
   11  C  2  S   -0.047992  -0.000592   0.102865   0.026083   0.012334
   12  C  2  X   -0.018329  -0.120064  -0.014097   0.117390   0.039251
   13  C  2  Y    0.019931   0.019965  -0.030870   0.100375  -0.021439
   14  C  2  Z   -0.219090   0.042819   0.167596   0.015501  -0.003745
   15  C  2  S   -0.900833  -0.049695   1.758513   0.169577   0.286254
   16  C  2  X   -0.257846  -0.644076  -0.161445   0.242135   0.391208
   17  C  2  Y    0.044072   0.166958  -0.260985   0.626635  -0.161096
   18  C  2  Z   -0.599270   0.018801   0.821627   0.055920   0.034590
   19  H  3  S   -0.031356   0.071387  -0.006012  -0.008958   0.040265
   20  H  3  S   -0.483885   0.490333  -0.076074   0.071608   0.001631
   21  H  4  S    0.082574  -0.023435  -0.006479  -0.011413   0.002396
   22  H  4  S    1.298663  -0.160679  -1.414915  -0.253752  -0.091921
   23  C  5  S    0.029049   0.097927   0.074624  -0.007278   0.009643
   24  C  5  S   -0.024196  -0.095561  -0.070617   0.012124  -0.007146
   25  C  5  X    0.086839   0.050757   0.026303   0.254654   0.085680
   26  C  5  Y    0.057686  -0.017326   0.015121  -0.248173   0.167590
   27  C  5  Z   -0.153071   0.113584  -0.108820  -0.026970  -0.233064
   28  C  5  S   -0.597852  -1.729203  -1.265468   0.075544  -0.144372
   29  C  5  X    0.192028  -0.029950  -0.036085   0.976943   0.255319
   30  C  5  Y    0.101229  -0.151667  -0.031804  -0.922765   0.660061
   31  C  5  Z   -0.289932   0.383488  -0.671882  -0.131935  -0.893894
   32  C  6  S   -0.059002  -0.103801   0.030757   0.013443   0.007535
   33  C  6  S    0.047976   0.098142  -0.030021  -0.039827  -0.001175
   34  C  6  X    0.073880   0.041328  -0.035785   0.186620   0.077034
   35  C  6  Y    0.096684  -0.127787  -0.003110   0.080575  -0.148488
   36  C  6  Z   -0.171316   0.083853  -0.186058   0.090790   0.167132
   37  C  6  S    1.087747   1.895450  -0.466079   0.072834  -0.190119
   38  C  6  X    0.131023  -0.115967  -0.105314   0.455786   0.314601
   39  C  6  Y    0.334646  -0.246776  -0.007036   0.175291  -0.651812
   40  C  6  Z   -0.398053   0.267493  -1.001361   0.276823   0.613955
   41  H  7  S   -0.002253   0.056847  -0.020803  -0.028669  -0.092091
   42  H  7  S   -0.323952   1.196318  -0.193792  -0.256397  -1.124630
   43  H  8  S   -0.060766  -0.028010  -0.072663  -0.011169   0.080911
   44  H  8  S   -1.104361  -0.385932  -0.941846   0.397548   0.910885
   45  H  9  S    0.009603  -0.030596   0.038788   0.082539   0.024577
   46  H  9  S    0.470938   0.496826   0.747259   1.648030   0.266916
   47  H 10  S    0.016596   0.018131   0.058270  -0.046132  -0.013859
   48  H 10  S   -0.509169  -0.531570   0.741872  -0.873910  -0.192454
   49  H 11  S    0.015446   0.017804  -0.008872  -0.012848   0.092083
   50  H 11  S    0.614459   0.349425   0.687301  -0.885487   1.343489
   51  H 12  S    0.010634  -0.030059   0.001215   0.031195  -0.098036
   52  H 12  S    0.267880  -1.221159   0.540193   0.258593  -1.042755

                     26         27         28         29         30
                    0.3222     0.3392     0.3623     0.6364     0.6570
                     A          A          A          A          A   
    1  O  1  S    0.017759   0.044754  -0.019897  -0.001779  -0.004904
    2  O  1  S   -0.015073  -0.047282   0.024155  -0.018961   0.030789
    3  O  1  X    0.122268   0.026403  -0.095947   0.026821  -0.002032
    4  O  1  Y    0.212013   0.256617  -0.099400   0.050974   0.056816
    5  O  1  Z   -0.104801  -0.034542   0.035939  -0.008633  -0.010848
    6  O  1  S   -0.334831  -0.798171   0.345001   0.194625   0.032695
    7  O  1  X    0.193212   0.039394  -0.312441   0.007516  -0.163048
    8  O  1  Y    0.458681   0.703438  -0.293893  -0.017264  -0.022283
    9  O  1  Z   -0.234505  -0.059539   0.101692   0.074709  -0.002439
   10  C  2  S    0.033974  -0.137655   0.032767   0.007744  -0.005864
   11  C  2  S    0.005451   0.132566  -0.052449  -0.078705   0.037672
   12  C  2  X    0.083790   0.115826   0.388637  -0.024396  -0.429187
   13  C  2  Y    0.333202   0.072635  -0.146074   0.181241   0.042622
   14  C  2  Z    0.089810  -0.314490   0.040436   0.080276  -0.052120
   15  C  2  S   -1.111848   2.636934  -0.534271   0.388667  -0.064083
   16  C  2  X    0.522525   0.403186   2.036951   0.019812   0.902881
   17  C  2  Y    1.665312   0.159934  -0.586260  -0.615059   0.000672
   18  C  2  Z    0.408460  -1.514799   0.285485  -0.300412   0.080993
   19  H  3  S   -0.068345  -0.012939   0.013115  -0.023506   0.013711
   20  H  3  S   -0.726602  -0.276297   0.215435  -0.069408  -0.082870
   21  H  4  S   -0.011724   0.035101  -0.026843  -0.147380  -0.016951
   22  H  4  S   -0.326891   0.599016  -0.033169   0.106036  -0.026477
   23  C  5  S   -0.041445   0.045998  -0.038591  -0.005983   0.001647
   24  C  5  S    0.006525   0.006410  -0.016160   0.124541   0.014660
   25  C  5  X    0.087477  -0.040088   0.134216   0.472722   0.260455
   26  C  5  Y    0.116371  -0.011192   0.079711  -0.232538   0.102352
   27  C  5  Z    0.098050   0.095345   0.135242  -0.196789   0.454686
   28  C  5  S    1.079527  -1.040865   1.040325  -0.469024   0.505435
   29  C  5  X    0.973987  -0.818200   0.939669  -0.689209  -0.312535
   30  C  5  Y    0.263269  -0.346678   0.998768   0.523409  -0.057634
   31  C  5  Z    0.421920   0.487013   0.723634   0.425174  -0.669641
   32  C  6  S   -0.024687   0.065316   0.023656  -0.007402   0.003100
   33  C  6  S    0.006036   0.005069   0.005849   0.106999  -0.054648
   34  C  6  X   -0.152244   0.039704   0.152279  -0.461015   0.338021
   35  C  6  Y   -0.063644  -0.101766  -0.086652  -0.213980  -0.076278
   36  C  6  Z    0.011719  -0.000561  -0.167323  -0.243355  -0.488101
   37  C  6  S    0.606396  -1.430992  -0.712597  -0.487280  -0.386197
   38  C  6  X   -1.113000   0.914512   0.781586   0.736375  -0.463964
   39  C  6  Y   -0.413051  -1.076342  -0.724818   0.481596  -0.084539
   40  C  6  Z    0.034699   0.045465  -0.866548   0.492678   0.731015
   41  H  7  S    0.004188  -0.024002   0.068335   0.228873  -0.281759
   42  H  7  S    0.200157   0.698997   0.635573   0.136511  -0.071418
   43  H  8  S   -0.016613  -0.060332  -0.035362   0.260923   0.280542
   44  H  8  S   -0.176158   0.280413  -0.780886   0.132567   0.103222
   45  H  9  S    0.021109  -0.037999   0.042009  -0.314808   0.071644
   46  H  9  S   -0.090281  -0.199673  -0.171763   0.014068  -0.048504
   47  H 10  S    0.053197  -0.032938  -0.051974  -0.339729  -0.025474
   48  H 10  S    0.899944   0.218682  -0.076911  -0.000617   0.091986
   49  H 11  S    0.058059   0.023597   0.026352   0.130674  -0.023529
   50  H 11  S    0.117104  -0.113468   0.323093   0.097777  -0.022366
   51  H 12  S    0.020477  -0.000887  -0.055280   0.148272  -0.044736
   52  H 12  S   -0.532535  -0.403506  -0.156296   0.090856  -0.062416

                     31         32         33         34         35
                    0.6898     0.7111     0.7227     0.7790     0.8349
                     A          A          A          A          A   
    1  O  1  S   -0.013341  -0.012369   0.026240   0.008408  -0.012646
    2  O  1  S    0.148281  -0.008795  -0.158235   0.012843   0.039952
    3  O  1  X    0.087240  -0.087514   0.130052   0.047356  -0.044889
    4  O  1  Y   -0.243980   0.112773   0.069603  -0.076343   0.170910
    5  O  1  Z   -0.003275   0.215519   0.132098  -0.036071  -0.088041
    6  O  1  S   -0.687874   0.239510   0.248599  -0.616752   0.286986
    7  O  1  X   -0.062062   0.083446  -0.082816   0.042930  -0.185999
    8  O  1  Y    0.162887  -0.113298  -0.098316   0.258410  -0.237230
    9  O  1  Z   -0.113745   0.004327   0.008550  -0.058395  -0.000745
   10  C  2  S    0.051406   0.012257  -0.015396  -0.056797  -0.008453
   11  C  2  S   -0.418863  -0.087057   0.070164   0.187211   0.092969
   12  C  2  X   -0.127897   0.052835  -0.098967   0.040470  -0.943117
   13  C  2  Y   -0.708348  -0.247153   0.031342  -0.785006  -0.068276
   14  C  2  Z    0.164284   0.096613   0.063110   0.029835  -0.360520
   15  C  2  S    1.011472  -0.275895  -0.475414  -0.568271  -0.490245
   16  C  2  X    0.282532  -0.155850   0.196392  -0.144606   2.364188
   17  C  2  Y    1.307214  -0.153623  -0.495595   1.680191   0.011826
   18  C  2  Z   -0.110398   0.098437  -0.053426  -0.379949   1.142476
   19  H  3  S    0.083120  -0.184869   0.275103   0.001278  -0.031726
   20  H  3  S   -0.210849  -0.091646  -0.167711  -0.270890  -0.170402
   21  H  4  S    0.021926   0.196531   0.217884  -0.178267  -0.127454
   22  H  4  S   -0.018849  -0.020982  -0.014718   0.015924  -0.449152
   23  C  5  S   -0.009957  -0.005818   0.021803   0.025466   0.034172
   24  C  5  S    0.068398   0.075142  -0.116388  -0.120434  -0.261574
   25  C  5  X    0.260192   0.185622  -0.399445  -0.353094  -0.290004
   26  C  5  Y    0.083500   0.050430  -0.675657  -0.077068  -0.138982
   27  C  5  Z    0.281724   0.119212   0.205449  -0.403399  -0.177649
   28  C  5  S    0.253795  -0.075689  -0.099073   0.189587   1.401287
   29  C  5  X   -0.205246  -0.275589   0.536786   0.449341   0.995084
   30  C  5  Y   -0.191199   0.069034   1.425714  -0.190178   0.602452
   31  C  5  Z   -0.457544  -0.325431  -0.575687   0.938002   0.512295
   32  C  6  S   -0.016110   0.014761   0.001421   0.035789  -0.023495
   33  C  6  S    0.134558  -0.118821   0.035954  -0.180365   0.068928
   34  C  6  X   -0.349429   0.194798  -0.062176   0.378141  -0.123710
   35  C  6  Y    0.369221  -0.667738  -0.030169  -0.211387   0.025498
   36  C  6  Z    0.170965   0.289401  -0.069536  -0.426029   0.333132
   37  C  6  S    0.061936   0.031920  -0.250002   0.374413  -0.502919
   38  C  6  X    0.312165  -0.248300   0.192934  -0.669912   0.360506
   39  C  6  Y   -0.719272   1.387961   0.156700   0.108016  -0.265331
   40  C  6  Z   -0.250489  -0.790190   0.047815   1.035273  -1.151854
   41  H  7  S   -0.144398  -0.124730  -0.185565   0.154726   0.193057
   42  H  7  S   -0.161674  -0.126787  -0.065361   0.351600   0.152154
   43  H  8  S   -0.071051  -0.230509  -0.024538   0.167862  -0.120775
   44  H  8  S   -0.139042  -0.192795   0.015778   0.419538  -0.506321
   45  H  9  S   -0.127459   0.035413  -0.021123  -0.065150   0.076635
   46  H  9  S    0.044090  -0.101187  -0.003220   0.007035   0.117409
   47  H 10  S   -0.095797  -0.058817   0.068830  -0.006649  -0.207841
   48  H 10  S    0.066659   0.011851  -0.110328   0.074702   0.060217
   49  H 11  S    0.122797   0.033977   0.481852   0.008786  -0.025017
   50  H 11  S   -0.003592   0.147885   0.440710  -0.138052   0.183218
   51  H 12  S   -0.025993   0.473014   0.011086   0.054773   0.014241
   52  H 12  S   -0.113999   0.450258   0.145725  -0.089524   0.035852

                     36         37         38         39         40
                    0.8487     0.8945     0.9699     1.0089     1.0435
                     A          A          A          A          A   
    1  O  1  S   -0.002777   0.004504   0.005721   0.020858   0.011586
    2  O  1  S   -0.082772  -0.002917   0.017412  -0.203433  -0.096767
    3  O  1  X    0.169108   0.069620  -0.530446  -0.228569  -0.018578
    4  O  1  Y    0.062435   0.009950   0.092036   0.211666   0.113936
    5  O  1  Z   -0.190848  -0.005030  -0.272674  -0.207539   0.189780
    6  O  1  S    0.618279  -0.013517   0.090570   0.276311  -0.017804
    7  O  1  X    0.022690  -0.269052   0.226891   0.104700  -0.034751
    8  O  1  Y   -0.329486  -0.036205  -0.341571  -0.313272  -0.165078
    9  O  1  Z   -0.026553   0.005310   0.134121   0.256690  -0.381542
   10  C  2  S   -0.000590   0.000548   0.010038  -0.024158   0.013407
   11  C  2  S    0.134564  -0.004719  -0.033724   0.054324  -0.832584
   12  C  2  X    0.383879  -0.106967   0.105796   0.038044   0.040735
   13  C  2  Y   -0.111725   0.030526  -0.088405   0.007536   0.025843
   14  C  2  Z   -0.810903   0.031873  -0.316383   0.545179  -0.395687
   15  C  2  S   -0.625212  -0.010612  -0.207613  -0.663692   1.496469
   16  C  2  X   -0.962515   1.387183  -0.205911  -0.027948  -0.066755
   17  C  2  Y   -0.053716  -0.140054   0.290919  -0.079943   0.186494
   18  C  2  Z    2.623144  -0.108552   0.494782  -0.629485   1.073184
   19  H  3  S   -0.115547   0.140924   0.925243   0.491213   0.161127
   20  H  3  S    0.093915  -0.046778  -0.736694  -0.527718  -0.128329
   21  H  4  S   -0.264950   0.033223   0.431335  -0.676817   0.265946
   22  H  4  S   -1.014570   0.030112  -0.594770   1.107752  -1.373772
   23  C  5  S   -0.008686  -0.024798   0.010875  -0.035011  -0.051147
   24  C  5  S   -0.036098  -0.127852  -0.122310  -0.123026   0.197071
   25  C  5  X    0.013364   0.483721   0.126749  -0.108013  -0.131930
   26  C  5  Y   -0.156424  -0.397087   0.146721  -0.114301   0.057365
   27  C  5  Z    0.394839  -0.336161  -0.039414   0.217025  -0.326589
   28  C  5  S    0.316873   1.218848   0.279214   0.472126  -0.197136
   29  C  5  X    0.099586  -1.147643   0.076837  -0.054259   0.061649
   30  C  5  Y    0.472916   1.283938  -0.278259   0.053998  -0.230489
   31  C  5  Z   -1.325880   1.071952   0.115881  -0.368152   0.290582
   32  C  6  S    0.015706   0.024869   0.024437  -0.025676  -0.049094
   33  C  6  S   -0.176010   0.153616  -0.084848  -0.138147   0.244022
   34  C  6  X    0.122178   0.540687  -0.082609   0.064941   0.117509
   35  C  6  Y   -0.194136   0.341175   0.032506  -0.243625  -0.048950
   36  C  6  Z    0.234720   0.302985  -0.062679   0.208830  -0.330959
   37  C  6  S    1.084938  -1.307581   0.243158   0.391541  -0.274296
   38  C  6  X   -0.654834  -1.329286  -0.134188   0.071153  -0.089836
   39  C  6  Y    0.839565  -1.127281   0.161678   0.265648  -0.015009
   40  C  6  Z   -0.739059  -0.963177   0.211992  -0.380748   0.305802
   41  H  7  S    0.023281  -0.094020   0.097788  -0.098079  -0.556598
   42  H  7  S   -0.649179   0.397139   0.043674  -0.428407   0.603376
   43  H  8  S    0.178581   0.083591   0.124467  -0.076703  -0.570859
   44  H  8  S   -0.450991  -0.333653   0.143741  -0.413070   0.665473
   45  H  9  S   -0.210998  -0.315764   0.142661  -0.317727  -0.405332
   46  H  9  S    0.081413  -1.104367  -0.024241   0.099070   0.282590
   47  H 10  S   -0.009976   0.306608   0.137461  -0.196692  -0.340903
   48  H 10  S    0.150964   1.129757  -0.021786   0.005929   0.210162
   49  H 11  S   -0.015536  -0.130925   0.141782  -0.412927  -0.194719
   50  H 11  S    0.372442   0.182274  -0.280726   0.244385  -0.177184
   51  H 12  S   -0.064023   0.163617   0.276399  -0.417806  -0.249476
   52  H 12  S    0.486042  -0.240940  -0.151459   0.418960   0.025283

                     41         42         43         44         45
                    1.0597     1.0745     1.0897     1.0994     1.1137
                     A          A          A          A          A   
    1  O  1  S   -0.020258   0.012475   0.001596   0.021604   0.012937
    2  O  1  S    0.122944  -0.024220   0.013880  -0.084656  -0.149244
    3  O  1  X    0.012139  -0.082670   0.006942  -0.094697   0.015010
    4  O  1  Y    0.206107  -0.154586   0.009264  -0.147246   0.023714
    5  O  1  Z    0.009992   0.056836   0.045637   0.427114   0.137852
    6  O  1  S    0.181441  -0.318066  -0.111134  -0.305803   0.116261
    7  O  1  X    0.090435   0.271078  -0.096940   0.030148  -0.018929
    8  O  1  Y   -0.457195   0.426351   0.019936   0.399918  -0.031119
    9  O  1  Z    0.044605  -0.126767  -0.064200  -0.558178  -0.206255
   10  C  2  S   -0.001100  -0.000694   0.001309   0.003576  -0.002211
[...]
 VDWsCBR    2   4        0.75635       10.34966      148.35630        0.00000        0.00000
 VDWsCBR    2   5       11.32093      221.73095     3983.48354        0.00000        0.00000
 VDWsCBR    2   6       11.29759      221.24329     3974.12838        0.00000        0.00000
 VDWsCBR    2   7        0.70590        9.56721      138.39580        0.00000        0.00000
 VDWsCBR    2   8        0.73571        9.97168      143.54051        0.00000        0.00000
 VDWsCBR    2   9        0.68015        9.15872      131.38419        0.00000        0.00000
 VDWsCBR    2  10        0.67214        8.91883      124.88676        0.00000        0.00000
 VDWsCBR    2  11        0.67618        9.36220      137.69316        0.00000        0.00000
 VDWsCBR    2  12        0.71819        9.73505      139.02064        0.00000       -0.00000
 VDWsCBR    3   4        0.07504        0.68997        9.20205        0.00003        0.00000
 VDWsCBR    3   5        0.89121       13.45481      203.99959        0.00000        0.00000
 VDWsCBR    3   6        0.89509       13.51097      204.81750        0.00000       -0.00000
 VDWsCBR    3   7        0.07124        0.64572        8.80726        0.00318       -0.00000
 VDWsCBR    3   8        0.07364        0.66752        9.03360        0.00052       -0.00000
 VDWsCBR    3   9        0.06781        0.60871        8.23735        0.00297       -0.00000
 VDWsCBR    3  10        0.06773        0.59468        7.84020        0.00004        0.00000
 VDWsCBR    3  11        0.06874        0.64321        8.85129        0.01068       -0.00000
 VDWsCBR    3  12        0.07158        0.64894        8.67052        0.00412       -0.00000
 VDWsCBR    4   5        1.04066       16.73977      264.37346        0.00000        0.00000
 VDWsCBR    4   6        1.04685       16.83658      265.85970        0.00000        0.00000
 VDWsCBR    4   7        0.08941        0.89886       12.30724        0.00473       -0.00000
 VDWsCBR    4   8        0.09217        0.92661       12.59849        0.00491       -0.00000
 VDWsCBR    4   9        0.08476        0.84467       11.47064        0.00043        0.00000
 VDWsCBR    4  10        0.08496        0.83001       10.98152        0.00055       -0.00000
 VDWsCBR    4  11        0.08650        0.89487       12.39642        0.00052        0.00000
 VDWsCBR    4  12        0.08946        0.89952       12.09081        0.00054       -0.00000
 VDWsCBR    5   6       15.24645      335.19663     6649.21184        0.00032        0.00000
 VDWsCBR    5   7        0.97252       15.51680      246.40449        0.00000        0.00000
 VDWsCBR    5   8        1.01295       16.16250      255.68777        0.00000       -0.00000
 VDWsCBR    5   9        0.93617       14.85492      234.12528        0.00000        0.00000
 VDWsCBR    5  10        0.92590       14.51011      223.92272        0.00002        0.00000
 VDWsCBR    5  11        0.93210       15.14447      244.44849        0.00000        0.00000
 VDWsCBR    5  12        0.98851       15.77360      248.00596        0.00000        0.00000
 VDWsCBR    6   7        0.97879       15.61419      247.91209        0.00000       -0.00000
 VDWsCBR    6   8        1.01924       16.26011      257.19101        0.00000        0.00000
 VDWsCBR    6   9        0.94188       14.94292      235.47462        0.00002       -0.00000
 VDWsCBR    6  10        0.93183       14.60051      225.28081        0.00000        0.00000
 VDWsCBR    6  11        0.93830       15.24279      245.99726        0.00000       -0.00000
 VDWsCBR    6  12        0.99452       15.86690      249.43283        0.00000        0.00000
 VDWsCBR    7   8        0.08809        0.87413       12.11099        0.00034       -0.00000
 VDWsCBR    7   9        0.08097        0.79638       11.02421        0.00000        0.00000
 VDWsCBR    7  10        0.08127        0.78330       10.57385        0.01844       -0.00000
 VDWsCBR    7  11        0.08282        0.84602       11.92920        0.00000        0.00000
 VDWsCBR    7  12        0.08546        0.84816       11.61806        0.00471       -0.00000
 VDWsCBR    8   9        0.08345        0.82075       11.28119        0.01719       -0.00000
 VDWsCBR    8  10        0.08370        0.80680       10.81036        0.00000        0.00000
 VDWsCBR    8  11        0.08526        0.87096       12.19865        0.00486       -0.00000
 VDWsCBR    8  12        0.08808        0.87413       11.88897        0.00000       -0.00000
 VDWsCBR    9  10        0.07694        0.73487        9.83805        0.04012       -0.00000
 VDWsCBR    9  11        0.07835        0.79354       11.10231        0.00000       -0.00000
 VDWsCBR    9  12        0.08099        0.79665       10.82370        0.01918       -0.00000
 VDWsCBR   10  11        0.07868        0.78139       10.66540        0.02091       -0.00000
 VDWsCBR   10  12        0.08121        0.78287       10.36319        0.00000        0.00000
 VDWsCBR   11  12        0.08270        0.84490       11.70490        0.00063       -0.00000
 Final Energy      -0.0000000 Hartree    -0.0000 kcal/mol
 STEP CPU TIME =     0.23 TOTAL CPU TIME =       28.1 (    0.5 MIN)
 TOTAL WALL CLOCK TIME=       28.6 SECONDS, CPU UTILIZATION IS  98.22%

                    *****************************
                    END OF dDsC DISPERSION ENERGY
                    *****************************

 FINAL ENERGY INCLUDING dDsC DISPERSION:  -194.246661543961     

     ---------------------------------------------------------------------
     PROPERTIES FOR THE WB97X    DFT FUNCTIONAL (ROHF TYPE) DENSITY MATRIX
     ---------------------------------------------------------------------

          -----------------
          ENERGY COMPONENTS
          -----------------

         WAVEFUNCTION NORMALIZATION =       1.0000000000

                ONE ELECTRON ENERGY =    -529.7760758431
                TWO ELECTRON ENERGY =     200.5651752416
           NUCLEAR REPULSION ENERGY =     134.9642390575
                                      ------------------
                       TOTAL ENERGY =    -194.2466615440

 ELECTRON-ELECTRON POTENTIAL ENERGY =     200.5651752416
  NUCLEUS-ELECTRON POTENTIAL ENERGY =    -722.9736714984
   NUCLEUS-NUCLEUS POTENTIAL ENERGY =     134.9642390575
                                      ------------------
             TOTAL POTENTIAL ENERGY =    -387.4442571993
               TOTAL KINETIC ENERGY =     193.1975956554
                 VIRIAL RATIO (V/T) =       2.0054300152

          ---------------------------------------
          MULLIKEN AND LOWDIN POPULATION ANALYSES
          ---------------------------------------

     ATOMIC MULLIKEN POPULATION IN EACH MOLECULAR ORBITAL

                      1          2          3          4          5

                  2.000000   2.000000   2.000000   2.000000   2.000000

    1             1.998244   0.000865   0.000008   0.000020   1.588418
    2             0.001441   1.993083   0.001594   0.001594   0.228619
    3             0.000392   0.000038  -0.000001   0.000001   0.127711
    4            -0.000011   0.001105   0.000007   0.000004   0.003880
    5            -0.000045   0.002454   0.000090   1.995017   0.028895
    6            -0.000019   0.002440   1.995024   0.000090   0.017766
    7             0.000000   0.000004  -0.000004   0.001149   0.000752
    8            -0.000000   0.000000   0.001134  -0.000005   0.000530
    9            -0.000000   0.000001   0.000000   0.001052   0.000906
   10            -0.000003  -0.000006   0.001040   0.000001   0.002227
   11             0.000000   0.000006  -0.000003   0.001080   0.000051
   12             0.000000   0.000010   0.001110  -0.000004   0.000246

                      6          7          8          9         10

                  2.000000   2.000000   2.000000   2.000000   2.000000

    1             0.182058   0.022809   0.325120   0.607009   0.212881
    2             0.607849   0.192153   0.509985   0.560063   0.436082
    3             0.044728   0.005403   0.089079   0.185270   0.028336
    4             0.039613   0.000344   0.151767   0.208960   0.038112
    5             0.438023   0.611380   0.359205   0.149159   0.364310
    6             0.474063   0.686272   0.215270   0.134183   0.489493
    7             0.035345   0.065710   0.084169   0.025009   0.019496
    8             0.038842   0.073690   0.055796   0.071475   0.001957
    9             0.027199   0.086586   0.048043   0.000501   0.187211
   10             0.032409   0.108021   0.031946   0.000489   0.189282
   11             0.036826   0.066693   0.083564   0.053084   0.004570
   12             0.043046   0.080938   0.046055   0.004799   0.028270

                     11         12         13         14         15

                  2.000000   2.000000   2.000000   2.000000   2.000000

    1             0.320521   0.066680   0.170545   0.545778   0.217649
    2             0.329680   0.065266   0.053625   0.302121   0.218080
    3             0.007612   0.019272   0.058168   0.001317   0.001726
    4             0.000905   0.008278   0.014177   0.043910   0.050519
    5             0.183598   0.306375   0.883566   0.318052   0.522379
    6             0.651052   0.763347   0.013424   0.354731   0.325048
    7             0.052492   0.150117   0.121658   0.135434   0.100516
    8             0.005004   0.412808   0.000883   0.094926   0.022631
    9             0.015030   0.039766   0.076373   0.013252   0.303444
   10             0.133691   0.018149   0.006307   0.134292   0.162857
   11             0.001471   0.000297   0.600561   0.006435   0.000076
   12             0.298946   0.149647   0.000713   0.049751   0.075077

                     16         17

                  2.000000   2.000000

    1             0.902527   1.446881
    2             0.304983   0.124157
    3             0.070965   0.000017
    4             0.125832   0.178758
    5             0.259267   0.003236
    6             0.159155   0.169620
    7             0.029549   0.018925
    8             0.035780   0.019569
    9             0.022824   0.009423
   10             0.041832  -0.000068
   11             0.005966   0.000149
   12             0.041320   0.029334

     ATOMIC SPIN POPULATION (ALPHA MINUS BETA)
       ATOM         MULL.POP.                    LOW.POP.
    1 O             0.000000                     0.000000
    2 C             0.000000                     0.000000
    3 H             0.000000                     0.000000
    4 H             0.000000                     0.000000
    5 C             0.000000                     0.000000
    6 C             0.000000                     0.000000
    7 H             0.000000                     0.000000
    8 H             0.000000                     0.000000
    9 H             0.000000                     0.000000
   10 H             0.000000                     0.000000
   11 H             0.000000                     0.000000
   12 H             0.000000                     0.000000

               ----- POPULATIONS IN EACH AO -----
                             MULLIKEN      LOWDIN
              1  O  1  S      1.99726     1.99359
              2  O  1  S      0.89743     0.87595
              3  O  1  X      0.95720     0.90795
              4  O  1  Y      0.86282     0.81777
              5  O  1  Z      1.08352     1.05378
              6  O  1  S      1.01163     0.73505
              7  O  1  X      0.58182     0.66087
              8  O  1  Y      0.49439     0.59489
              9  O  1  Z      0.72194     0.78205
             10  C  2  S      1.99730     1.98636
             11  C  2  S      0.66763     0.54032
             12  C  2  X      0.72962     0.67661
             13  C  2  Y      0.59624     0.55453
             14  C  2  Z      0.71984     0.64533
             15  C  2  S      0.56219     0.40092
             16  C  2  X      0.25615     0.40486
             17  C  2  Y      0.11573     0.32158
             18  C  2  Z      0.28566     0.43179
             19  H  3  S      0.51551     0.48259
             20  H  3  S      0.12452     0.23916
             21  H  4  S      0.54313     0.53755
             22  H  4  S      0.32303     0.37700
             23  C  5  S      1.99696     1.98802
             24  C  5  S      0.65922     0.55720
             25  C  5  X      0.70464     0.65252
             26  C  5  Y      0.71929     0.64922
             27  C  5  Z      0.72082     0.65143
             28  C  5  S      0.64829     0.44036
             29  C  5  X      0.28090     0.43331
             30  C  5  Y      0.32868     0.47280
             31  C  5  Z      0.36615     0.49015
             32  C  6  S      1.99697     1.98809
             33  C  6  S      0.65776     0.56102
             34  C  6  X      0.70567     0.64936
             35  C  6  Y      0.71481     0.64936
             36  C  6  Z      0.72099     0.65240
             37  C  6  S      0.65665     0.44362
             38  C  6  X      0.29187     0.44441
             39  C  6  Y      0.33645     0.47371
             40  C  6  Z      0.36979     0.49240
             41  H  7  S      0.52777     0.50677
             42  H  7  S      0.31255     0.37171
             43  H  8  S      0.52677     0.50632
             44  H  8  S      0.30825     0.37113
             45  H  9  S      0.52848     0.50739
             46  H  9  S      0.30313     0.36720
             47  H 10  S      0.53158     0.51160
             48  H 10  S      0.33088     0.38044
             49  H 11  S      0.53092     0.50945
             50  H 11  S      0.32991     0.37773
             51  H 12  S      0.52861     0.50642
             52  H 12  S      0.32065     0.37398

          ----- MULLIKEN ATOMIC OVERLAP POPULATIONS -----
          (OFF-DIAGONAL ELEMENTS NEED TO BE MULTIPLIED BY 2)

             1           2           3           4           5

    1    8.3196090
    2    0.2193188   4.9345792
    3    0.2460849  -0.0364743   0.4253701
    4   -0.0490738   0.3910369  -0.0040763   0.6478351
    5   -0.0713354   0.3109859   0.0087687  -0.0562117   5.1823259
    6   -0.0679936   0.2987126  -0.0028622  -0.0668605  -0.0636459
    7    0.0016017  -0.0344457  -0.0001244   0.0055473   0.3769329
    8    0.0019221  -0.0344726  -0.0007704   0.0057013  -0.0076779
    9    0.0017710  -0.0296125  -0.0001417  -0.0047738   0.3780975
   10   -0.0011003  -0.0343457   0.0045866  -0.0045671   0.0055538
   11    0.0033108  -0.0319951  -0.0002841  -0.0000983   0.3630777
   12    0.0038971  -0.0229135  -0.0000420   0.0017014  -0.0019093

             6           7           8           9          10

    6    5.2605205
    7   -0.0082684   0.5463937
    8    0.3744129   0.0052199   0.5440679
    9    0.0056291  -0.0260608  -0.0000524   0.5332626
   10    0.3739219  -0.0000446  -0.0298667  -0.0001671   0.5754416
   11   -0.0010415  -0.0267190   0.0001448  -0.0262208  -0.0000485
   12    0.3484342   0.0002870  -0.0236107  -0.0001210  -0.0268980

            11          12

   11    0.5793133
   12    0.0013863   0.5690458

          TOTAL MULLIKEN AND LOWDIN ATOMIC POPULATIONS
       ATOM         MULL.POP.    CHARGE          LOW.POP.     CHARGE
    1 O             8.608012   -0.608012         8.421911   -0.421911
    2 C             5.930374    0.069626         5.962287    0.037713
    3 H             0.640035    0.359965         0.721746    0.278254
    4 H             0.866161    0.133839         0.914547    0.085453
    5 C             6.424962   -0.424962         6.335002   -0.335002
    6 C             6.450959   -0.450959         6.354377   -0.354377
    7 H             0.840320    0.159680         0.878482    0.121518
    8 H             0.835018    0.164982         0.877451    0.122549
    9 H             0.831610    0.168390         0.874589    0.125411
   10 H             0.862466    0.137534         0.892039    0.107961
   11 H             0.860826    0.139174         0.887172    0.112828
   12 H             0.849257    0.150743         0.880396    0.119604

          -------------------------------
          BOND ORDER AND VALENCE ANALYSIS     BOND ORDER THRESHOLD=0.050
          -------------------------------

                   BOND                       BOND                       BOND
  ATOM PAIR DIST  ORDER      ATOM PAIR DIST  ORDER      ATOM PAIR DIST  ORDER
    1   2  1.432  0.880        1   3  0.973  0.812        2   4  1.101  0.936
    2   5  1.514  0.972        2   6  1.520  0.947        5   7  1.093  0.952
    5   9  1.092  0.952        5  11  1.093  0.952        6   8  1.093  0.950
    6  10  1.095  0.956        6  12  1.094  0.945

                       TOTAL       BONDED        FREE
      ATOM            VALENCE     VALENCE     VALENCE
    1 O                 1.712       1.712       0.000
    2 C                 3.702       3.702      -0.000
    3 H                 0.835       0.835       0.000
    4 H                 0.926       0.926       0.000
    5 C                 3.780       3.780       0.000
    6 C                 3.767       3.767       0.000
    7 H                 0.943       0.943       0.000
    8 H                 0.940       0.940       0.000
    9 H                 0.940       0.940       0.000
   10 H                 0.944       0.944       0.000
   11 H                 0.941       0.941       0.000
   12 H                 0.941       0.941       0.000

          -----------------------------------------
          ATOMIC SPIN DENSITY AT THE NUCLEUS (A.U.)
          -----------------------------------------
                            SPIN DENS    ALPHA DENS     BETA DENS
    1  O            8.0     0.0000000     145.49682     145.49682
    2  C            6.0     0.0000000      59.03901      59.03901
    3  H            1.0     0.0000000       0.20894       0.20894
    4  H            1.0     0.0000000       0.21796       0.21796
    5  C            6.0     0.0000000      59.04977      59.04977
    6  C            6.0     0.0000000      59.05826      59.05826
    7  H            1.0     0.0000000       0.21024       0.21024
    8  H            1.0     0.0000000       0.20991       0.20991
    9  H            1.0     0.0000000       0.21058       0.21058
   10  H            1.0     0.0000000       0.21175       0.21175
   11  H            1.0     0.0000000       0.21145       0.21145
   12  H            1.0     0.0000000       0.21040       0.21040

          ---------------------
          ELECTROSTATIC MOMENTS
          ---------------------

 POINT   1           X           Y           Z (BOHR)    CHARGE
                -0.014470    0.098444   -0.008800        0.00 (A.U.)
         DX          DY          DZ         /D/  (DEBYE)
     1.411260   -0.872200    1.048840    1.962767
 ...... END OF PROPERTY EVALUATION ......
 STEP CPU TIME =     0.00 TOTAL CPU TIME =       28.1 (    0.5 MIN)
 TOTAL WALL CLOCK TIME=       28.6 SECONDS, CPU UTILIZATION IS  98.18%
 Deallocating dDsC arrays
                580000  WORDS OF DYNAMIC MEMORY USED
 EXECUTION OF GAMESS TERMINATED NORMALLY Wed Sep 30 13:00:49 2015
 DDI: 263640 bytes (0.3 MB / 0 MWords) used by master data server.

 ----------------------------------------
 CPU timing information for all processes
 ========================================
 0: 17.759 + 10.379 = 28.138
 ----------------------------------------
 ddikick.x: exited gracefully.
unset echo
----- accounting info -----
Files used on the master node lcmd44.cluster were:
-rw-r--r-- 1 petragli lcmd   52246 Sep 30 13:00 /scratch/petragli/10166.slurm/G2-148.129.dat
-rw-r--r-- 1 petragli lcmd     853 Sep 30 13:00 /scratch/petragli/10166.slurm/G2-148.129.F05
-rw-r--r-- 1 petragli lcmd 2094080 Sep 30 13:00 /scratch/petragli/10166.slurm/G2-148.129.F10
-rw-r--r-- 1 petragli lcmd     853 Sep 30 13:00 /scratch/petragli/10166.slurm/G2-148.129.inp
ls: No match.
ls: No match.
ls: No match.
Wed Sep 30 13:00:52 CEST 2015
0.095u 0.023s 0:31.86 0.3%	0+0k 8+176io 0pf+0w
