----- GAMESS execution script 'rungms' -----
This job is running on host lcmd44.cluster
under operating system Linux at Mon Oct 5 16:35:29 CEST 2015
Available scratch disk space (Kbyte units) at beginning of the job is
Filesystem      1K-blocks  Used  Available Use% Mounted on
/dev/md1       1714180500 72528 1696691576   1% /scratch
GAMESS temporary binary files will be written to /scratch/petragli/12427.slurm
GAMESS supplementary output files will be written to /scratch/petragli/12427.slurm
Copying input file G2-148.146.inp to your run's scratch directory...
cp G2-148.146.inp /scratch/petragli/12427.slurm/G2-148.146.F05
unset echo
/home/petragli/wb97xddsc/gamess-all/gamess/ddikick.x /home/petragli/wb97xddsc/gamess-all/gamess/gamess.00.x G2-148.146 -ddi 1 1 lcmd44.cluster -scr /scratch/petragli/12427.slurm

 Distributed Data Interface kickoff program.
 Initiating 1 compute processes on 1 nodes to run the following command:
 /home/petragli/wb97xddsc/gamess-all/gamess/gamess.00.x G2-148.146 

          ******************************************************
          *         GAMESS VERSION =  5 DEC 2014 (R1)          *
          *             FROM IOWA STATE UNIVERSITY             *
          * M.W.SCHMIDT, K.K.BALDRIDGE, J.A.BOATZ, S.T.ELBERT, *
          *   M.S.GORDON, J.H.JENSEN, S.KOSEKI, N.MATSUNAGA,   *
          *          K.A.NGUYEN, S.J.SU, T.L.WINDUS,           *
          *       TOGETHER WITH M.DUPUIS, J.A.MONTGOMERY       *
          *         J.COMPUT.CHEM.  14, 1347-1363(1993)        *
          **************** 64 BIT INTEL VERSION ****************

  SINCE 1993, STUDENTS AND POSTDOCS WORKING AT IOWA STATE UNIVERSITY
  AND ALSO IN THEIR VARIOUS JOBS AFTER LEAVING ISU HAVE MADE IMPORTANT
  CONTRIBUTIONS TO THE CODE:
     IVANA ADAMOVIC, CHRISTINE AIKENS, YURI ALEXEEV, POOJA ARORA,
     ANDREY ASADCHEV, ROB BELL, PRADIPTA BANDYOPADHYAY, JONATHAN BENTZ,
     BRETT BODE, KURT BRORSEN, CALEB CARLIN, GALINA CHABAN, WEI CHEN,
     CHEOL HO CHOI, PAUL DAY, ALBERT DEFUSCO, NUWAN DESILVA, TIM DUDLEY,
     DMITRI FEDOROV, GRAHAM FLETCHER, MARK FREITAG, KURT GLAESEMANN,
     DAN KEMP, GRANT MERRILL, NORIYUKI MINEZAWA, JONATHAN MULLIN,
     TAKESHI NAGATA, SEAN NEDD, HEATHER NETZLOFF, BOSILJKA NJEGIC, RYAN OLSON,
     MIKE PAK, SPENCER PRUITT, LUKE ROSKOP, JIM SHOEMAKER, LYUDMILA SLIPCHENKO,
     TONY SMITH, SAROM SOK, JIE SONG, TETSUYA TAKETSUGU, SIMON WEBB,
     PENG XU, SOOHAENG YOO, FEDERICO ZAHARIEV

  ADDITIONAL CODE HAS BEEN PROVIDED BY COLLABORATORS IN OTHER GROUPS:
     IOWA STATE UNIVERSITY:
          JOE IVANIC, AARON WEST, LAIMUTIS BYTAUTAS, KLAUS RUEDENBERG
     UNIVERSITY OF TOKYO: KIMIHIKO HIRAO, TAKAHITO NAKAJIMA,
          TAKAO TSUNEDA, MUNEAKI KAMIYA, SUSUMU YANAGISAWA,
          KIYOSHI YAGI, MAHITO CHIBA, SEIKEN TOKURA, NAOAKI KAWAKAMI
     UNIVERSITY OF AARHUS: FRANK JENSEN
     UNIVERSITY OF IOWA: VISVALDAS KAIRYS, HUI LI
     NATIONAL INST. OF STANDARDS AND TECHNOLOGY: WALT STEVENS, DAVID GARMER
     UNIVERSITY OF PISA: BENEDETTA MENNUCCI, JACOPO TOMASI
     UNIVERSITY OF MEMPHIS: HENRY KURTZ, PRAKASHAN KORAMBATH
     UNIVERSITY OF ALBERTA: TOBY ZENG, MARIUSZ KLOBUKOWSKI
     UNIVERSITY OF NEW ENGLAND: MARK SPACKMAN
     MIE UNIVERSITY: HIROAKI UMEDA
     NAT. INST. OF ADVANCED INDUSTRIAL SCIENCE AND TECHNOLOGY: KAZUO KITAURA
     MICHIGAN STATE UNIVERSITY:
          KAROL KOWALSKI, MARTA WLOCH, JEFFREY GOUR, JESSE LUTZ,
          WEI LI, PIOTR PIECUCH
     UNIVERSITY OF SILESIA: MONIKA MUSIAL, STANISLAW KUCHARSKI
     FACULTES UNIVERSITAIRES NOTRE-DAME DE LA PAIX:
          OLIVIER QUINET, BENOIT CHAMPAGNE
     UNIVERSITY OF CALIFORNIA - SANTA BARBARA: BERNARD KIRTMAN
     INSTITUTE FOR MOLECULAR SCIENCE:
          KAZUYA ISHIMURA, MICHIO KATOUDA, AND SHIGERU NAGASE
     UNIVERSITY OF NOTRE DAME: ANNA POMOGAEVA, DAN CHIPMAN
     KYUSHU UNIVERSITY:
          HARUYUKI NAKANO,
          FENG LONG GU, JACEK KORCHOWIEC, MARCIN MAKOWSKI, AND YURIKO AOKI,
          HIROTOSHI MORI AND EISAKU MIYOSHI
     PENNSYLVANIA STATE UNIVERSITY:
          TZVETELIN IORDANOV, CHET SWALINA, JONATHAN SKONE,
          SHARON HAMMES-SCHIFFER
     WASEDA UNIVERSITY:
          MASATO KOBAYASHI, TOMOKO AKAMA, TSUGUKI TOUMA,
          TAKESHI YOSHIKAWA, YASUHIRO IKABATA, HIROMI NAKAI
     NANJING UNIVERSITY: SHUHUA LI
     UNIVERSITY OF NEBRASKA:
          PEIFENG SU, DEJUN SI, NANDUN THELLAMUREGE, YALI WANG, HUI LI
     UNIVERSITY OF ZURICH: ROBERTO PEVERATI, KIM BALDRIDGE
     N. COPERNICUS UNIVERSITY AND JACKSON STATE UNIVERSITY:
          MARIA BARYSZ
     UNIVERSITY OF COPENHAGEN: CASPER STEINMANN
     TOKYO INSTITUTE OF TECHNOLOGY: HIROYA NAKATA
     NAGOYA UNIVERSITY: YOSHIO NISHIMOTO, STEPHAN IRLE

 EXECUTION OF GAMESS BEGUN Mon Oct  5 16:35:29 2015

            ECHO OF THE FIRST FEW INPUT CARDS -
 INPUT CARD> $DATA                                                                          
 INPUT CARD> Should be setted!                                                              
 INPUT CARD> C1                                                                             
 INPUT CARD> C     6.00     0.014223     0.543850     0.000000                              
 INPUT CARD> C     6.00     0.014223    -0.199742     1.291572                              
 INPUT CARD> C     6.00     0.014223    -0.199742    -1.291572                              
 INPUT CARD> H     1.00    -0.322890     1.575329     0.000000                              
 INPUT CARD> H     1.00     0.221417     0.459174     2.138477                              
 INPUT CARD> H     1.00     0.221417     0.459174    -2.138477                              
 INPUT CARD> H     1.00    -0.955157    -0.684629     1.484633                              
 INPUT CARD> H     1.00     0.767181    -0.995308     1.286239                              
 INPUT CARD> H     1.00     0.767181    -0.995308    -1.286239                              
 INPUT CARD> H     1.00    -0.955157    -0.684629    -1.484633                              
 INPUT CARD> $END                                                                           
 INPUT CARD> $DFT NRAD=24 NLEB=110 DDSC=.t. $END                                            
 INPUT CARD> $SCF DIRSCF=.t. $END                                                           
 INPUT CARD> $BASIS NGAUSS=6 GBASIS=N31 $END                                                
 INPUT CARD> $CONTRL DFTTYP=wB97X ICHARG=0 EXETYP=RUN MULT=2 MAXIT=200 SCFTYP=ROHF          
 INPUT CARD>RUNTYP=ENERGY $END                                                              
 INPUT CARD> $SYSTEM MWORDS=8 $END                                                          
    8000000 WORDS OF MEMORY AVAILABLE

     BASIS OPTIONS
     -------------
     GBASIS=N31          IGAUSS=       6      POLAR=NONE    
     NDFUNC=       0     NFFUNC=       0     DIFFSP=       F
     NPFUNC=       0      DIFFS=       F     BASNAM=        


     RUN TITLE
     ---------
  Should be setted!                                                              

 THE POINT GROUP OF THE MOLECULE IS C1      
 THE ORDER OF THE PRINCIPAL AXIS IS     0

 ATOM      ATOMIC                      COORDINATES (BOHR)
           CHARGE         X                   Y                   Z
 C           6.0     0.0268775727        1.0277274784        0.0000000000
 C           6.0     0.0268775727       -0.3774576482        2.4407171734
 C           6.0     0.0268775727       -0.3774576482       -2.4407171734
 H           1.0    -0.6101736242        2.9769401505        0.0000000000
 H           1.0     0.4184174590        0.8677130407        4.0411355610
 H           1.0     0.4184174590        0.8677130407       -4.0411355610
 H           1.0    -1.8049850053       -1.2937612132        2.8055495623
 H           1.0     1.4497618730       -1.8808593934        2.4306392647
 H           1.0     1.4497618730       -1.8808593934       -2.4306392647
 H           1.0    -1.8049850053       -1.2937612132       -2.8055495623

          INTERNUCLEAR DISTANCES (ANGS.)
          ------------------------------

                1 C          2 C          3 C          4 H          5 H     

   1 C       0.0000000    1.4903313 *  1.4903313 *  1.0851701 *  2.1501589 *
   2 C       1.4903313 *  0.0000000    2.5831440 *  2.2209639 *  1.0928622 *
   3 C       1.4903313 *  2.5831440 *  0.0000000    2.2209639 *  3.4989049  
   4 H       1.0851701 *  2.2209639 *  2.2209639 *  0.0000000    2.4728841 *
   5 H       2.1501589 *  1.0928622 *  3.4989049    2.4728841 *  0.0000000  
   6 H       2.1501589 *  3.4989049    1.0928622 *  2.4728841 *  4.2769540  
   7 H       2.1570798 *  1.1009476 *  2.9802898 *  2.7769240 *  1.7663872 *
   8 H       2.1425134 *  1.0953992 *  2.8008892 *  3.0742219    1.7719159 *
   9 H       2.1425134 *  2.8008892 *  1.0953992 *  3.0742219    3.7605925  
  10 H       2.1570798 *  2.9802898 *  1.1009476 *  2.7769240 *  3.9773783  

                6 H          7 H          8 H          9 H         10 H     

   1 C       2.1501589 *  2.1570798 *  2.1425134 *  2.1425134 *  2.1570798 *
   2 C       3.4989049    1.1009476 *  1.0953992 *  2.8008892 *  2.9802898 *
   3 C       1.0928622 *  2.9802898 *  2.8008892 *  1.0953992 *  1.1009476 *
   4 H       2.4728841 *  2.7769240 *  3.0742219    3.0742219    2.7769240 *
   5 H       4.2769540    1.7663872 *  1.7719159 *  3.7605925    3.9773783  
   6 H       0.0000000    3.9773783    3.7605925    1.7719159 *  1.7663872 *
   7 H       3.9773783    0.0000000    1.7613432 *  3.2773009    2.9692660 *
   8 H       3.7605925    1.7613432 *  0.0000000    2.5724780 *  3.2773009  
   9 H       1.7719159 *  3.2773009    2.5724780 *  0.0000000    1.7613432 *
  10 H       1.7663872 *  2.9692660 *  3.2773009    1.7613432 *  0.0000000  

  * ... LESS THAN  3.000


     ATOMIC BASIS SET
     ----------------
 THE CONTRACTED PRIMITIVE FUNCTIONS HAVE BEEN UNNORMALIZED
 THE CONTRACTED BASIS FUNCTIONS ARE NOW NORMALIZED TO UNITY

  SHELL TYPE  PRIMITIVE        EXPONENT          CONTRACTION COEFFICIENT(S)

 C         

      1   S       1          3047.5248800    0.001834737132
      1   S       2           457.3695180    0.014037322813
      1   S       3           103.9486850    0.068842622264
      1   S       4            29.2101553    0.232184443216
      1   S       5             9.2866630    0.467941348435
      1   S       6             3.1639270    0.362311985337

      2   L       7             7.8682723   -0.119332419775    0.068999066591
      2   L       8             1.8812885   -0.160854151696    0.316423960957
      2   L       9             0.5442493    1.143456437840    0.744308290898

      3   L      10             0.1687145    1.000000000000    1.000000000000

 C         

      4   S      11          3047.5248800    0.001834737132
      4   S      12           457.3695180    0.014037322813
      4   S      13           103.9486850    0.068842622264
      4   S      14            29.2101553    0.232184443216
      4   S      15             9.2866630    0.467941348435
      4   S      16             3.1639270    0.362311985337

      5   L      17             7.8682723   -0.119332419775    0.068999066591
      5   L      18             1.8812885   -0.160854151696    0.316423960957
      5   L      19             0.5442493    1.143456437840    0.744308290898

      6   L      20             0.1687145    1.000000000000    1.000000000000

 C         

      7   S      21          3047.5248800    0.001834737132
      7   S      22           457.3695180    0.014037322813
      7   S      23           103.9486850    0.068842622264
      7   S      24            29.2101553    0.232184443216
      7   S      25             9.2866630    0.467941348435
      7   S      26             3.1639270    0.362311985337

      8   L      27             7.8682723   -0.119332419775    0.068999066591
      8   L      28             1.8812885   -0.160854151696    0.316423960957
      8   L      29             0.5442493    1.143456437840    0.744308290898

      9   L      30             0.1687145    1.000000000000    1.000000000000

 H         

     10   S      31            18.7311370    0.033494604338
     10   S      32             2.8253944    0.234726953484
     10   S      33             0.6401217    0.813757326146

     11   S      34             0.1612778    1.000000000000

 H         

     12   S      35            18.7311370    0.033494604338
     12   S      36             2.8253944    0.234726953484
     12   S      37             0.6401217    0.813757326146

     13   S      38             0.1612778    1.000000000000

 H         

     14   S      39            18.7311370    0.033494604338
     14   S      40             2.8253944    0.234726953484
     14   S      41             0.6401217    0.813757326146

     15   S      42             0.1612778    1.000000000000

 H         

     16   S      43            18.7311370    0.033494604338
     16   S      44             2.8253944    0.234726953484
     16   S      45             0.6401217    0.813757326146

     17   S      46             0.1612778    1.000000000000

 H         

     18   S      47            18.7311370    0.033494604338
     18   S      48             2.8253944    0.234726953484
     18   S      49             0.6401217    0.813757326146

     19   S      50             0.1612778    1.000000000000

 H         

     20   S      51            18.7311370    0.033494604338
     20   S      52             2.8253944    0.234726953484
     20   S      53             0.6401217    0.813757326146

     21   S      54             0.1612778    1.000000000000

 H         

     22   S      55            18.7311370    0.033494604338
     22   S      56             2.8253944    0.234726953484
     22   S      57             0.6401217    0.813757326146

     23   S      58             0.1612778    1.000000000000

 TOTAL NUMBER OF BASIS SET SHELLS             =   23
 NUMBER OF CARTESIAN GAUSSIAN BASIS FUNCTIONS =   41
 NUMBER OF ELECTRONS                          =   25
 CHARGE OF MOLECULE                           =    0
 SPIN MULTIPLICITY                            =    2
 NUMBER OF OCCUPIED ORBITALS (ALPHA)          =   13
 NUMBER OF OCCUPIED ORBITALS (BETA )          =   12
 TOTAL NUMBER OF ATOMS                        =   10
 THE NUCLEAR REPULSION ENERGY IS       75.5033900625

     LEBEDEV GRID-BASED DFT OPTIONS
     ------------------------------
     DFTTYP=WB97X   
     NRAD  =      24     NLEB  =     110
     NRAD0 =      24     NLEB0 =     110
     SWOFF =    5.00E-03 (PURE SCF -> DFT)
     SWITCH=    3.00E-04 (COARSE -> TIGHT GRID)
     THRESH=    0.00E+00 GTHRE=    1.00E+00

     LC/CAM PARAMETERS
     -----------------
     ALPHAC =.50000  BETAC =.50000  CAMMU = 0.300  CAMVWN =  0.00  CAMLYP =  0.00

 GRIMME'S EMPIRICAL DISPERSION CORRECTION= F
 TURNING ON dDsC DISPERSION CORRECTION

     $CONTRL OPTIONS
     ---------------
 SCFTYP=ROHF         RUNTYP=ENERGY       EXETYP=RUN     
 MPLEVL=       0     CITYP =NONE         CCTYP =NONE         VBTYP =NONE    
 DFTTYP=WB97X        TDDFT =NONE    
 MULT  =       2     ICHARG=       0     NZVAR =       0     COORD =UNIQUE  
 PP    =NONE         RELWFN=NONE         LOCAL =NONE         NUMGRD=       F
 ISPHER=      -1     NOSYM =       0     MAXIT =     200     UNITS =ANGS    
 PLTORB=       F     MOLPLT=       F     AIMPAC=       F     FRIEND=        
 NPRINT=       7     IREST =       0     GEOM  =INPUT   
 NORMF =       0     NORMP =       0     ITOL  =      20     ICUT  =       9
 INTTYP=BEST         GRDTYP=BEST         QMTTOL= 1.0E-06

     $SYSTEM OPTIONS
     ---------------
  REPLICATED MEMORY=     8000000 WORDS (ON EVERY NODE).
 DISTRIBUTED MEMDDI=           0 MILLION WORDS IN AGGREGATE,
 MEMDDI DISTRIBUTED OVER   1 PROCESSORS IS           0 WORDS/PROCESSOR.
 TOTAL MEMORY REQUESTED ON EACH PROCESSOR=     8000000 WORDS.
 TIMLIM=      525600.00 MINUTES, OR     365.0 DAYS.
 PARALL= F  BALTYP=  DLB     KDIAG=    0  COREFL= F
 MXSEQ2=     300 MXSEQ3=     150  mem10=         0

          ----------------
          PROPERTIES INPUT
          ----------------

     MOMENTS            FIELD           POTENTIAL          DENSITY
 IEMOM =       1   IEFLD =       0   IEPOT =       0   IEDEN =       0
 WHERE =COMASS     WHERE =NUCLEI     WHERE =NUCLEI     WHERE =NUCLEI  
 OUTPUT=BOTH       OUTPUT=BOTH       OUTPUT=BOTH       OUTPUT=BOTH    
 IEMINT=       0   IEFINT=       0                     IEDINT=       0
                                                       MORB  =       0
          EXTRAPOLATION IN EFFECT
          DIIS IN EFFECT
 ORBITAL PRINTING OPTION: NPREO=     1    41     2     1

     -------------------------------
     INTEGRAL TRANSFORMATION OPTIONS
     -------------------------------
     NWORD  =            0
     CUTOFF = 1.0E-09     MPTRAN =       0
     DIRTRF =       T     AOINTS =DUP     

          ----------------------
          INTEGRAL INPUT OPTIONS
          ----------------------
 NOPK  =       1 NORDER=       0 SCHWRZ=       T

     ------------------------------------------
     THE POINT GROUP IS C1 , NAXIS= 0, ORDER= 1
     ------------------------------------------

     DIMENSIONS OF THE SYMMETRY SUBSPACES ARE
 A   =   41

 ..... DONE SETTING UP THE RUN .....
 STEP CPU TIME =     0.01 TOTAL CPU TIME =        0.0 (    0.0 MIN)
 TOTAL WALL CLOCK TIME=        0.0 SECONDS, CPU UTILIZATION IS  33.33%
 Tang and Toennies damping function for C6

          ********************
          1 ELECTRON INTEGRALS
          ********************
 ...... END OF ONE-ELECTRON INTEGRALS ......
 STEP CPU TIME =     0.00 TOTAL CPU TIME =        0.0 (    0.0 MIN)
 TOTAL WALL CLOCK TIME=        0.1 SECONDS, CPU UTILIZATION IS  14.29%

          -------------
          GUESS OPTIONS
          -------------
          GUESS =HUCKEL            NORB  =       0          NORDER=       0
          MIX   =       F          PRTMO =       F          PUNMO =       F
          TOLZ  = 1.0E-08          TOLE  = 1.0E-05
          SYMDEN=       F          PURIFY=       F

 INITIAL GUESS ORBITALS GENERATED BY HUCKEL   ROUTINE.
 HUCKEL GUESS REQUIRES     21119 WORDS.

 SYMMETRIES FOR INITIAL GUESS ORBITALS FOLLOW.  ALPHA SET(S).
    13 ORBITALS ARE OCCUPIED (    3 CORE ORBITALS).
     4=A        5=A        6=A        7=A        8=A        9=A       10=A   
    11=A       12=A       13=A       14=A       15=A       16=A       17=A   
    18=A       19=A       20=A       21=A       22=A       23=A   

 SYMMETRIES FOR INITIAL GUESS ORBITALS FOLLOW.   BETA SET(S).
    12 ORBITALS ARE OCCUPIED (    3 CORE ORBITALS).
     4=A        5=A        6=A        7=A        8=A        9=A       10=A   
    11=A       12=A       13=A       14=A       15=A       16=A       17=A   
    18=A       19=A       20=A       21=A       22=A   
 ...... END OF INITIAL ORBITAL SELECTION ......
 STEP CPU TIME =     0.00 TOTAL CPU TIME =        0.0 (    0.0 MIN)
 TOTAL WALL CLOCK TIME=        0.1 SECONDS, CPU UTILIZATION IS  12.50%

          ***************************************
          *       dDsC density dependent        *
          *        DISPERSION CORRECTION        *
          *    - Stephan Steinmann   and  -     *
          *    -   Clemence Corminboeuf   -     *
          ***************************************


 =======================================================================
 dDsC PERFORMS THE FOLLOWING CALCULATIONS:
 1. HF/DFT FOR ATOMS
 2. SUPERPOSITION OF ATOMIC DENSITIES
 3. Energy of the Molecule
 4. Classical Hirshfeld dominant analysis
 5. Dispersion correction
 =======================================================================

          -------------------------
          ATOM  1 WITH OWN BASIS
          -------------------------

     ------------------------------------------
     THE POINT GROUP IS C1 , NAXIS= 0, ORDER= 1
     ------------------------------------------

     DIMENSIONS OF THE SYMMETRY SUBSPACES ARE
 A   =    9
 ...... END OF ONE-ELECTRON INTEGRALS ......
 STEP CPU TIME =     0.00 TOTAL CPU TIME =        0.0 (    0.0 MIN)
 TOTAL WALL CLOCK TIME=        0.1 SECONDS, CPU UTILIZATION IS  12.50%

          -------------
          GUESS OPTIONS
          -------------
          GUESS =HUCKEL            NORB  =       0          NORDER=       0
          MIX   =       F          PRTMO =       F          PUNMO =       F
          TOLZ  = 1.0E-08          TOLE  = 1.0E-05
          SYMDEN=       F          PURIFY=       F

 INITIAL GUESS ORBITALS GENERATED BY HUCKEL   ROUTINE.
 HUCKEL GUESS REQUIRES      1489 WORDS.

 SYMMETRIES FOR INITIAL GUESS ORBITALS FOLLOW.  ALPHA SET(S).
     4 ORBITALS ARE OCCUPIED (    1 CORE ORBITALS).
     2=A        3=A        4=A        5=A        6=A        7=A        8=A   
     9=A   

 SYMMETRIES FOR INITIAL GUESS ORBITALS FOLLOW.   BETA SET(S).
     2 ORBITALS ARE OCCUPIED (    1 CORE ORBITALS).
     2=A        3=A        4=A        5=A        6=A        7=A        8=A   
     9=A   
 ...... END OF INITIAL ORBITAL SELECTION ......
 STEP CPU TIME =     0.00 TOTAL CPU TIME =        0.0 (    0.0 MIN)
 TOTAL WALL CLOCK TIME=        0.1 SECONDS, CPU UTILIZATION IS  12.50%

                    ----------------------
                    AO INTEGRAL TECHNOLOGY
                    ----------------------
     S,P,L SHELL ROTATED AXIS INTEGRALS, REPROGRAMMED BY
        KAZUYA ISHIMURA (IMS) AND JOSE SIERRA (SYNSTAR).
     S,P,D,L SHELL ROTATED AXIS INTEGRALS PROGRAMMED BY
        KAZUYA ISHIMURA (INSTITUTE FOR MOLECULAR SCIENCE).
     S,P,D,F,G SHELL TO TOTAL QUARTET ANGULAR MOMENTUM SUM 5,
        ERIC PROGRAM BY GRAHAM FLETCHER (ELORET AND NASA ADVANCED
        SUPERCOMPUTING DIVISION, AMES RESEARCH CENTER).
     S,P,D,F,G,L SHELL GENERAL RYS QUADRATURE PROGRAMMED BY
        MICHEL DUPUIS (PACIFIC NORTHWEST NATIONAL LABORATORY).
  ...... END OF TWO-ELECTRON INTEGRALS .....
 STEP CPU TIME =     0.01 TOTAL CPU TIME =        0.0 (    0.0 MIN)
 TOTAL WALL CLOCK TIME=        0.1 SECONDS, CPU UTILIZATION IS  22.22%
  ...... END OF TWO-ELECTRON INTEGRALS .....
 STEP CPU TIME =     0.00 TOTAL CPU TIME =        0.0 (    0.0 MIN)
 TOTAL WALL CLOCK TIME=        0.1 SECONDS, CPU UTILIZATION IS  22.22%

          ---------------------------
              U-WB97X SCF CALCULATION
          ---------------------------
         DENSITY MATRIX CONVERGENCE THRESHOLD=  2.00E-05
     COARSE -> FINE DFT GRID SWITCH THRESHOLD=  3.00E-04 (SWITCH IN $DFT)
                   HF -> DFT SWITCH THRESHOLD=  5.00E-03 (SWOFF IN $DFT)

 DIRECT SCF CALCULATION, SCHWRZ=T   FDIFF=T

     EXCHANGE FUNCTIONAL   =WB97X     
     CORRELATION FUNCTIONAL=WB97X     
     DFT THRESHOLD         =.379E-06
 FOR AN EULER-MACLAURIN QUADRATURE USING  24 RADIAL POINTS:
 SMALLEST GAUSSIAN PRIMITIVE EXPONENT=        0.1687144782 OF TYPE -P-
 ON ATOM NUMBER   1 HAS RADIAL NORMALIZATION=  0.999033
  LARGEST GAUSSIAN PRIMITIVE EXPONENT=     3047.5248800000 OF TYPE -S-
 ON ATOM NUMBER   1 HAS RADIAL NORMALIZATION=  0.996585

          **************************************************
          *                                                *
          * WARNING: QUESTIONABLE SELECTION OF RADIAL GRID *
          *                                                *
          **************************************************

 THIS RUN HAS REQUESTED NRAD=  24 IN $DFT OR $TDDFT
 ATOM=    1 HAS LARGE EXPONENT=          3047.524879999999939
 RECOMMEND NRAD ABOVE  50 FOR ZETA'S ABOVE 1E+4
 RECOMMEND NRAD ABOVE  75 FOR ZETA'S ABOVE 1E+5
 RECOMMEND NRAD ABOVE 125 FOR ZETA'S ABOVE 1E+6
 ATOM=    1 HAS SMALL EXPONENT=             0.168714478150400
 RECOMMEND NRAD ABOVE  75 FOR ZETA'S BELOW 1E-3
 RECOMMEND NRAD ABOVE 100 FOR ZETA'S BELOW 1E-4
 RECOMMEND NRAD ABOVE 125 FOR ZETA'S BELOW 1E-5
 DFT IS SWITCHED OFF, PERFORMING PURE SCF UNTIL SWOFF THRESHOLD IS REACHED.

                                                                                NONZERO     BLOCKS
 ITER EX      TOTAL ENERGY        E CHANGE  DENSITY CHANGE    DIIS ERROR      INTEGRALS    SKIPPED
   1  0      -37.6441520045   -37.6441520045   0.238956071   0.547002967            213          0
          * * *   INITIATING DIIS PROCEDURE   * * *
   2  1      -37.6777870129    -0.0336350084   0.009335336   0.012607298            213          0
   3  2      -37.6778282687    -0.0000412557   0.004688974   0.002616787            213          0
 CONVERGED TO SWOFF, SO DFT CALCULATION IS NOW SWITCHED ON.
          * * *   INITIATING DIIS PROCEDURE   * * *
   4  3      -38.0028781117    -0.3250498430   0.024532000   0.017979638            213          0
   5  4      -38.0031550575    -0.0002769458   0.012363181   0.005999365            213          0
   6  5      -38.0031909264    -0.0000358689   0.002649907   0.001167113            213          0
   7  6      -38.0031921459    -0.0000012194   0.000067677   0.000031523            213          0
   8  7      -38.0031921467    -0.0000000008   0.000004167   0.000002253            213          0
   9  8      -38.0031921467    -0.0000000000   0.000000070   0.000000053            213          0

          -----------------
          DENSITY CONVERGED
          -----------------
     TIME TO FORM FOCK OPERATORS=       0.9 SECONDS (       0.1 SEC/ITER)
     FOCK TIME ON FIRST ITERATION=       0.0, LAST ITERATION=       0.1
     TIME TO SOLVE SCF EQUATIONS=       0.0 SECONDS (       0.0 SEC/ITER)

 FINAL U-WB97X ENERGY IS      -38.0031921467 AFTER   9 ITERATIONS
 DFT EXCHANGE + CORRELATION ENERGY =        -2.4004600711
 TOTAL ELECTRON NUMBER             =         6.0002033335

          --------------------
          SPIN SZ   =    1.000
          S-SQUARED =    2.004
          --------------------
 ...... END OF UHF CALCULATION ......
 STEP CPU TIME =     0.89 TOTAL CPU TIME =        0.9 (    0.0 MIN)
 TOTAL WALL CLOCK TIME=        1.0 SECONDS, CPU UTILIZATION IS  89.22%

          -------------------------
          ATOM  2 WITH OWN BASIS
          -------------------------

          -------------------------
          ATOM  3 WITH OWN BASIS
          -------------------------

          -------------------------
          ATOM  4 WITH OWN BASIS
          -------------------------

     ------------------------------------------
     THE POINT GROUP IS C1 , NAXIS= 0, ORDER= 1
     ------------------------------------------

     DIMENSIONS OF THE SYMMETRY SUBSPACES ARE
 A   =    2
 ...... END OF ONE-ELECTRON INTEGRALS ......
 STEP CPU TIME =     0.00 TOTAL CPU TIME =        0.9 (    0.0 MIN)
 TOTAL WALL CLOCK TIME=        1.0 SECONDS, CPU UTILIZATION IS  86.67%

          -------------
          GUESS OPTIONS
          -------------
          GUESS =HUCKEL            NORB  =       0          NORDER=       0
          MIX   =       F          PRTMO =       F          PUNMO =       F
          TOLZ  = 1.0E-08          TOLE  = 1.0E-05
          SYMDEN=       F          PURIFY=       F

 INITIAL GUESS ORBITALS GENERATED BY HUCKEL   ROUTINE.
 HUCKEL GUESS REQUIRES       689 WORDS.

 SYMMETRIES FOR INITIAL GUESS ORBITALS FOLLOW.  ALPHA SET(S).
     1 ORBITALS ARE OCCUPIED (    0 CORE ORBITALS).
     1=A        2=A   
 ...... END OF INITIAL ORBITAL SELECTION ......
 STEP CPU TIME =     0.01 TOTAL CPU TIME =        0.9 (    0.0 MIN)
 TOTAL WALL CLOCK TIME=        1.0 SECONDS, CPU UTILIZATION IS  87.62%
  ...... END OF TWO-ELECTRON INTEGRALS .....
 STEP CPU TIME =     0.00 TOTAL CPU TIME =        0.9 (    0.0 MIN)
 TOTAL WALL CLOCK TIME=        1.1 SECONDS, CPU UTILIZATION IS  86.79%
  ...... END OF TWO-ELECTRON INTEGRALS .....
 STEP CPU TIME =     0.00 TOTAL CPU TIME =        0.9 (    0.0 MIN)
 TOTAL WALL CLOCK TIME=        1.1 SECONDS, CPU UTILIZATION IS  86.79%

          ---------------------------
              U-WB97X SCF CALCULATION
          ---------------------------
         DENSITY MATRIX CONVERGENCE THRESHOLD=  2.00E-05
     COARSE -> FINE DFT GRID SWITCH THRESHOLD=  3.00E-04 (SWITCH IN $DFT)
                   HF -> DFT SWITCH THRESHOLD=  5.00E-03 (SWOFF IN $DFT)

 DIRECT SCF CALCULATION, SCHWRZ=T   FDIFF=T
 DFT IS SWITCHED OFF, PERFORMING PURE SCF UNTIL SWOFF THRESHOLD IS REACHED.

                                                                                NONZERO     BLOCKS
 ITER EX      TOTAL ENERGY        E CHANGE  DENSITY CHANGE    DIIS ERROR      INTEGRALS    SKIPPED
          * * *   INITIATING DIIS PROCEDURE   * * *
   1  0       -0.4641827651    -0.4641827651   0.178441695   0.177483467              6          0
   2  1       -0.4947088078    -0.0305260427   0.089352122   0.058032615              6          0
 REDUCING DIIS EQUATION SIZE BY 1 FOR NUMERICAL STABILITY
   3  2       -0.4982329092    -0.0035241014   0.000000000   0.000000000              6          0
 CONVERGED TO SWOFF, SO DFT CALCULATION IS NOW SWITCHED ON.
          * * *   INITIATING DIIS PROCEDURE   * * *
   4  3                 NaN              NaN   0.010620588           NaN              6          0
   5  4                 NaN              NaN   1.749994809           NaN              6          0
   6  5                 NaN              NaN   0.000000000           NaN              6          0
   7  6                 NaN              NaN   0.000000000           NaN              0          6

          -----------------
          DENSITY CONVERGED
          -----------------
     TIME TO FORM FOCK OPERATORS=       0.5 SECONDS (       0.1 SEC/ITER)
     FOCK TIME ON FIRST ITERATION=       0.0, LAST ITERATION=       0.1
     TIME TO SOLVE SCF EQUATIONS=       0.0 SECONDS (       0.0 SEC/ITER)

 FINAL U-WB97X ENERGY IS                 NaN AFTER   7 ITERATIONS
 DFT EXCHANGE + CORRELATION ENERGY =                  NaN
 TOTAL ELECTRON NUMBER             =         1.0000618016

          --------------------
          SPIN SZ   =    0.500
          S-SQUARED =    0.750
          --------------------
 ...... END OF UHF CALCULATION ......
 STEP CPU TIME =     0.55 TOTAL CPU TIME =        1.5 (    0.0 MIN)
 TOTAL WALL CLOCK TIME=        1.6 SECONDS, CPU UTILIZATION IS  90.74%

          -------------------------
          ATOM  5 WITH OWN BASIS
          -------------------------

          -------------------------
          ATOM  6 WITH OWN BASIS
          -------------------------

          -------------------------
          ATOM  7 WITH OWN BASIS
          -------------------------

          -------------------------
          ATOM  8 WITH OWN BASIS
          -------------------------

          -------------------------
          ATOM  9 WITH OWN BASIS
          -------------------------

          -------------------------
          ATOM 10 WITH OWN BASIS
          -------------------------

     ------------------------------------------
     THE POINT GROUP IS C1 , NAXIS= 0, ORDER= 1
     ------------------------------------------

     DIMENSIONS OF THE SYMMETRY SUBSPACES ARE
 A   =   41
 STEP CPU TIME =     0.00 TOTAL CPU TIME =        1.5 (    0.0 MIN)
 TOTAL WALL CLOCK TIME=        1.6 SECONDS, CPU UTILIZATION IS  89.09%

                       **********************
                       END OF SAD PREPARATION
                       **********************


          ********************
          1 ELECTRON INTEGRALS
          ********************
 ...... END OF ONE-ELECTRON INTEGRALS ......
 STEP CPU TIME =     0.01 TOTAL CPU TIME =        1.5 (    0.0 MIN)
 TOTAL WALL CLOCK TIME=        1.7 SECONDS, CPU UTILIZATION IS  89.16%

          -------------
          GUESS OPTIONS
          -------------
          GUESS =HUCKEL            NORB  =       0          NORDER=       0
          MIX   =       F          PRTMO =       F          PUNMO =       F
          TOLZ  = 1.0E-08          TOLE  = 1.0E-05
          SYMDEN=       F          PURIFY=       F

 INITIAL GUESS ORBITALS GENERATED BY HUCKEL   ROUTINE.
 HUCKEL GUESS REQUIRES     21119 WORDS.

 SYMMETRIES FOR INITIAL GUESS ORBITALS FOLLOW.  ALPHA SET(S).
    13 ORBITALS ARE OCCUPIED (    3 CORE ORBITALS).
     4=A        5=A        6=A        7=A        8=A        9=A       10=A   
    11=A       12=A       13=A       14=A       15=A       16=A       17=A   
    18=A       19=A       20=A       21=A       22=A       23=A   

 SYMMETRIES FOR INITIAL GUESS ORBITALS FOLLOW.   BETA SET(S).
    12 ORBITALS ARE OCCUPIED (    3 CORE ORBITALS).
     4=A        5=A        6=A        7=A        8=A        9=A       10=A   
    11=A       12=A       13=A       14=A       15=A       16=A       17=A   
    18=A       19=A       20=A       21=A       22=A   
 ...... END OF INITIAL ORBITAL SELECTION ......
 STEP CPU TIME =     0.00 TOTAL CPU TIME =        1.5 (    0.0 MIN)
 TOTAL WALL CLOCK TIME=        1.7 SECONDS, CPU UTILIZATION IS  89.16%

          --------------------------------
          2 ELECTRON LC EXCHANGE INTEGRALS
          --------------------------------

 DIRECT SCF METHOD SKIPS INTEGRAL STORAGE ON DISK.
 DIRECT TRANSFORMATION SKIPS AO INTEGRAL STORAGE ON DISK.
  ...... END OF TWO-ELECTRON INTEGRALS .....
 STEP CPU TIME =     0.00 TOTAL CPU TIME =        1.5 (    0.0 MIN)
 TOTAL WALL CLOCK TIME=        1.7 SECONDS, CPU UTILIZATION IS  89.16%

          --------------------
          2 ELECTRON INTEGRALS
          --------------------

 DIRECT SCF METHOD SKIPS INTEGRAL STORAGE ON DISK.
 DIRECT TRANSFORMATION SKIPS AO INTEGRAL STORAGE ON DISK.
  ...... END OF TWO-ELECTRON INTEGRALS .....
 STEP CPU TIME =     0.00 TOTAL CPU TIME =        1.5 (    0.0 MIN)
 TOTAL WALL CLOCK TIME=        1.7 SECONDS, CPU UTILIZATION IS  89.16%

          ---------------------------
             RO-WB97X SCF CALCULATION
          ---------------------------

     NUCLEAR ENERGY =        75.5033900625
     MAXIT =200     NPUNCH=  2     MULT=  2
     EXTRAP=T  DAMP=F  SHIFT=F  RSTRCT=F  DIIS=T  SOSCF=F
         DENSITY MATRIX CONVERGENCE THRESHOLD=  2.00E-05
     COARSE -> FINE DFT GRID SWITCH THRESHOLD=  3.00E-04 (SWITCH IN $DFT)
                   HF -> DFT SWITCH THRESHOLD=  5.00E-03 (SWOFF IN $DFT)
     ROHF CANONICALIZATION PARAMETERS
             C-C     O-O     V-V
     ALPHA -0.5000  0.5000  1.5000
     BETA   1.5000  0.5000 -0.5000
     MEMORY REQUIRED FOR UHF/ROHF ITERS=    157759 WORDS.

 DIRECT SCF CALCULATION, SCHWRZ=T   FDIFF=T
 SCHWARZ INEQUALITY OVERHEAD:       860 INTEGRALS, T=        0.00
 DFT IS SWITCHED OFF, PERFORMING PURE SCF UNTIL SWOFF THRESHOLD IS REACHED.

                                                                                NONZERO     BLOCKS
 ITER EX      TOTAL ENERGY        E CHANGE  DENSITY CHANGE    DIIS ERROR      INTEGRALS    SKIPPED
   1  0     -117.3691950453  -117.3691950453   0.198795580   0.608206548         328194       2040
          * * *   INITIATING DIIS PROCEDURE   * * *
   2  1     -117.5753267150    -0.2061316697   0.057198490   0.058263399         327639       2356
   3  2     -117.5857616483    -0.0104349334   0.016482835   0.028708278         326274       2891
   4  3     -117.5872695337    -0.0015078854   0.008165137   0.003638545         324291       3690
   5  4     -117.5873600913    -0.0000905576   0.001584190   0.000793581         322920       4068
 CONVERGED TO SWOFF, SO DFT CALCULATION IS NOW SWITCHED ON.
          * * *   INITIATING DIIS PROCEDURE   * * *
   6  5     -118.9265179585    -1.3391578673   0.027974606   0.020285683         326924       2059
   7  6     -118.9282914320    -0.0017734734   0.011649928   0.010502416         324410       3235
   8  7     -118.9286036564    -0.0003122244   0.002083499   0.002555322         322229       3953
   9  8     -118.9286232267    -0.0000195704   0.000631960   0.000313146         320056       4664
  10  9     -118.9286236742    -0.0000004475   0.000199212   0.000116871         315848       5928
  11 10     -118.9286237456    -0.0000000714   0.000050138   0.000010201         312639       6931
  12 11     -118.9286237471    -0.0000000015   0.000010296   0.000001741         304693       8624
  13 12     -118.9286237471     0.0000000000   0.000000658   0.000000286         292583      11065

          -----------------
          DENSITY CONVERGED
          -----------------
     TIME TO FORM FOCK OPERATORS=      13.8 SECONDS (       1.1 SEC/ITER)
     FOCK TIME ON FIRST ITERATION=       0.1, LAST ITERATION=       1.7
     TIME TO SOLVE SCF EQUATIONS=       0.0 SECONDS (       0.0 SEC/ITER)

 FINAL RO-WB97X ENERGY IS     -118.9286237471 AFTER  13 ITERATIONS
 DFT EXCHANGE + CORRELATION ENERGY =        -8.4193475066
 TOTAL ELECTRON NUMBER             =        24.9958620748

          --------------------
          SPIN SZ   =    0.500
          S-SQUARED =    0.750
          --------------------

          ------------
          EIGENVECTORS
          ------------

                      1          2          3          4          5
                  -10.7122   -10.7122   -10.7096    -0.9560    -0.8800
                     A          A          A          A          A   
    1  C  1  S    0.113983   0.004904   0.989844  -0.120548  -0.000000
    2  C  1  S    0.001919   0.000083   0.026825   0.238554   0.000001
    3  C  1  X   -0.000062  -0.000003  -0.000488  -0.013133  -0.000000
    4  C  1  Y    0.000194   0.000008  -0.000258  -0.063917  -0.000000
    5  C  1  Z    0.000014  -0.000322   0.000000  -0.000001   0.153857
    6  C  1  S    0.006004   0.000257  -0.022502   0.148097  -0.000002
    7  C  1  X    0.000114   0.000005   0.000633  -0.006567   0.000000
    8  C  1  Y   -0.001958  -0.000084   0.002559  -0.004757   0.000001
    9  C  1  Z   -0.000215   0.005000  -0.000000   0.000005   0.012565
   10  C  2  S    0.668886   0.733795  -0.080768  -0.123508  -0.140965
   11  C  2  S    0.019006   0.021772  -0.003223   0.236778   0.270228
   12  C  2  X    0.000000  -0.000044  -0.000070  -0.001452   0.000878
   13  C  2  Y   -0.000042  -0.000110  -0.000365   0.012045   0.003353
   14  C  2  Z    0.000230  -0.000146   0.000431  -0.038468   0.019769
   15  C  2  S   -0.015303  -0.019379   0.007441   0.216874   0.284726
   16  C  2  X   -0.000080   0.000177   0.000183  -0.001574  -0.002141
   17  C  2  Y   -0.000363  -0.000282   0.001571  -0.001502   0.000632
   18  C  2  Z    0.000050   0.001473  -0.002924  -0.004384   0.004200
   19  C  3  S    0.729297  -0.673790  -0.080751  -0.123509   0.140965
   20  C  3  S    0.020802  -0.020063  -0.003223   0.236779  -0.270226
   21  C  3  X   -0.000004   0.000044  -0.000070  -0.001452  -0.000878
   22  C  3  Y   -0.000052   0.000106  -0.000365   0.012044  -0.003353
   23  C  3  Z   -0.000217  -0.000166  -0.000431   0.038468   0.019770
   24  C  3  S   -0.016907   0.017997   0.007440   0.216881  -0.284725
   25  C  3  X   -0.000064  -0.000183   0.000183  -0.001574   0.002139
   26  C  3  Y   -0.000385   0.000250   0.001571  -0.001497  -0.000630
   27  C  3  Z   -0.000176   0.001463   0.002924   0.004385   0.004201
   28  H  4  S   -0.000369  -0.000016  -0.000519   0.055876   0.000000
   29  H  4  S    0.000580   0.000025   0.003113   0.006760  -0.000000
   30  H  5  S   -0.000046   0.000011  -0.000115   0.070212   0.104107
   31  H  5  S    0.003195   0.002654  -0.000320   0.013029   0.028719
   32  H  6  S   -0.000045  -0.000015  -0.000115   0.070212  -0.104107
   33  H  6  S    0.003410  -0.002371  -0.000320   0.013027  -0.028720
   34  H  7  S   -0.000107   0.000069  -0.000245   0.073368   0.095381
   35  H  7  S    0.002683   0.003422   0.000407   0.012307   0.021049
   36  H  8  S   -0.000101   0.000069  -0.000183   0.074786   0.094997
   37  H  8  S    0.002664   0.003406  -0.000101   0.015732   0.022206
   38  H  9  S   -0.000094  -0.000077  -0.000183   0.074786  -0.094997
   39  H  9  S    0.002946  -0.003166  -0.000101   0.015733  -0.022204
   40  H 10  S   -0.000101  -0.000078  -0.000245   0.073369  -0.095382
   41  H 10  S    0.002966  -0.003179   0.000408   0.012308  -0.021048

                      6          7          8          9         10
                   -0.6989    -0.5904    -0.5409    -0.5384    -0.5110
                     A          A          A          A          A   
    1  C  1  S   -0.149442   0.029644  -0.012033  -0.000000  -0.000000
    2  C  1  S    0.297490  -0.061193   0.027348   0.000001   0.000000
    3  C  1  X   -0.060323  -0.049145   0.103427   0.000003   0.000001
    4  C  1  Y    0.116338   0.251909   0.024818   0.000002   0.000000
    5  C  1  Z   -0.000000   0.000000  -0.000006   0.231803   0.000672
    6  C  1  S    0.332904  -0.070646   0.010503  -0.000002   0.000001
    7  C  1  X   -0.028173  -0.019814   0.031142   0.000000  -0.000000
    8  C  1  Y    0.034779   0.100774   0.007174   0.000002   0.000001
    9  C  1  Z    0.000003  -0.000011  -0.000005   0.098317   0.004976
   10  C  2  S    0.054395  -0.010716   0.001050   0.002477   0.000419
   11  C  2  S   -0.103877   0.017779  -0.002746   0.000532   0.001220
   12  C  2  X   -0.023863  -0.045665   0.295013  -0.015948   0.318365
   13  C  2  Y    0.115505   0.129792   0.060535   0.314062   0.013041
   14  C  2  Z   -0.128055   0.245835   0.023345  -0.017725   0.007510
   15  C  2  S   -0.150484   0.045844   0.002010  -0.030932  -0.007261
   16  C  2  X   -0.007074  -0.019842   0.145130  -0.011276   0.167943
   17  C  2  Y    0.037459   0.067260   0.032246   0.151353   0.003618
   18  C  2  Z   -0.034478   0.105887   0.011622   0.001418   0.007419
   19  C  3  S    0.054395  -0.010715   0.001051  -0.002477  -0.000419
   20  C  3  S   -0.103880   0.017783  -0.002745  -0.000534  -0.001221
   21  C  3  X   -0.023863  -0.045665   0.295015   0.015965  -0.318362
   22  C  3  Y    0.115506   0.129794   0.060553  -0.314058  -0.013040
   23  C  3  Z    0.128055  -0.245836  -0.023345  -0.017729   0.007510
   24  C  3  S   -0.150470   0.045820   0.002002   0.030942   0.007264
   25  C  3  X   -0.007075  -0.019843   0.145130   0.011286  -0.167942
   26  C  3  Y    0.037458   0.067253   0.032254  -0.151353  -0.003620
   27  C  3  Z    0.034482  -0.105894  -0.011624   0.001417   0.007418
   28  H  4  S    0.198159   0.117780   0.010917   0.000001   0.000000
   29  H  4  S    0.090760   0.082586   0.012886   0.000001  -0.000000
   30  H  5  S   -0.063834   0.171440   0.073649   0.116838   0.052718
   31  H  5  S   -0.027449   0.113103   0.054839   0.089003   0.041064
   32  H  6  S   -0.063834   0.171443   0.073657  -0.116834  -0.052717
   33  H  6  S   -0.027448   0.113107   0.054845  -0.089000  -0.041063
   34  H  7  S   -0.071391   0.025085  -0.192223  -0.084711  -0.198263
   35  H  7  S   -0.033149   0.015537  -0.151975  -0.060888  -0.152035
   36  H  8  S   -0.099017  -0.071193   0.108752  -0.158618   0.144975
   37  H  8  S   -0.049475  -0.052974   0.088149  -0.111647   0.109107
   38  H  9  S   -0.099017  -0.071194   0.108745   0.158624  -0.144975
   39  H  9  S   -0.049479  -0.052974   0.088147   0.111647  -0.109109
   40  H 10  S   -0.071391   0.025085  -0.192230   0.084700   0.198261
   41  H 10  S   -0.033154   0.015537  -0.151980   0.060878   0.152031

                     11         12         13         14         15
                   -0.4753    -0.4673    -0.1023     0.2133     0.2375
                     A          A          A          A          A   
    1  C  1  S    0.000001   0.009185  -0.027473  -0.039518  -0.071694
    2  C  1  S    0.000004  -0.025200   0.057447   0.089118   0.053434
    3  C  1  X   -0.000000  -0.066114   0.584971  -0.026858  -0.068851
    4  C  1  Y    0.000001   0.325797   0.125764   0.090504   0.154653
    5  C  1  Z    0.337819  -0.000002  -0.000000  -0.000006  -0.000002
    6  C  1  S   -0.000028  -0.008700   0.132991   0.622458   1.269250
    7  C  1  X   -0.000002  -0.038560   0.529826  -0.138226  -0.241030
    8  C  1  Y    0.000017   0.172476   0.129381   0.254107   0.251846
    9  C  1  Z    0.134675  -0.000005  -0.000001   0.000009  -0.000106
   10  C  2  S   -0.018647   0.014458   0.006587  -0.085028   0.038812
   11  C  2  S    0.041044  -0.032854  -0.015330   0.091691  -0.023633
   12  C  2  X    0.009574   0.038700  -0.049479   0.002346  -0.023600
   13  C  2  Y   -0.013206  -0.249813  -0.023640  -0.055796   0.159043
   14  C  2  Z   -0.334309   0.056747   0.019082   0.103006   0.076231
   15  C  2  S    0.054821  -0.039410  -0.018466   1.421244  -0.732217
   16  C  2  X    0.002331   0.023832  -0.038786   0.067515   0.014202
   17  C  2  Y   -0.015729  -0.139200  -0.022232  -0.216061   0.509649
   18  C  2  Z   -0.174820   0.010461   0.002938   0.486609   0.341266
   19  C  3  S    0.018647   0.014458   0.006588  -0.085028   0.038826
   20  C  3  S   -0.041052  -0.032851  -0.015330   0.091695  -0.023634
   21  C  3  X   -0.009574   0.038701  -0.049480   0.002348  -0.023603
   22  C  3  Y    0.013203  -0.249813  -0.023641  -0.055792   0.159041
   23  C  3  Z   -0.334307  -0.056743  -0.019082  -0.103005  -0.076224
   24  C  3  S   -0.054773  -0.039425  -0.018470   1.421240  -0.732531
   25  C  3  X   -0.002329   0.023833  -0.038783   0.067509   0.014188
   26  C  3  Y    0.015728  -0.139198  -0.022232  -0.216032   0.509569
   27  C  3  Z   -0.174801  -0.010462  -0.002938  -0.486634  -0.341274
   28  H  4  S    0.000001   0.238684  -0.025140   0.008135  -0.101205
   29  H  4  S   -0.000004   0.193788  -0.045052  -0.608260  -1.208907
   30  H  5  S   -0.177662  -0.096553  -0.037440  -0.049031  -0.050270
   31  H  5  S   -0.151109  -0.073547  -0.045762  -0.883862  -0.537377
   32  H  6  S    0.177660  -0.096555  -0.037440  -0.049036  -0.050270
   33  H  6  S    0.151104  -0.073548  -0.045762  -0.883896  -0.537240
   34  H  7  S   -0.019979   0.046007   0.104037   0.001864   0.019398
   35  H  7  S   -0.022799   0.045381   0.172013  -0.676268   0.467862
   36  H  8  S    0.036961   0.145945  -0.061049   0.010843   0.045663
   37  H  8  S    0.025221   0.136295  -0.096934  -0.683397   0.869989
   38  H  9  S   -0.036961   0.145946  -0.061049   0.010842   0.045670
   39  H  9  S   -0.025229   0.136300  -0.096936  -0.683363   0.870052
   40  H 10  S    0.019978   0.046007   0.104038   0.001862   0.019402
   41  H 10  S    0.022795   0.045387   0.172017  -0.676260   0.467915

                     16         17         18         19         20
                    0.2584     0.2811     0.2906     0.2961     0.3070
                     A          A          A          A          A   
    1  C  1  S    0.000004  -0.081777  -0.096288   0.000000  -0.000007
    2  C  1  S    0.000002   0.065927   0.142384  -0.000003   0.000029
    3  C  1  X    0.000005  -0.113087   0.007891   0.000005  -0.000013
    4  C  1  Y   -0.000018  -0.017428   0.051035  -0.000010   0.000025
    5  C  1  Z   -0.075874   0.000007   0.000013  -0.013556  -0.086696
    6  C  1  S   -0.000063   1.579324   1.639299   0.000020   0.000030
    7  C  1  X    0.000029  -0.517683   0.114440   0.000011  -0.000052
    8  C  1  Y   -0.000046   0.019864   0.327632  -0.000069   0.000262
    9  C  1  Z   -0.645491  -0.000017   0.000035  -0.280701  -0.166562
   10  C  2  S   -0.107873   0.043352   0.042188  -0.013909  -0.009789
   11  C  2  S    0.087795  -0.040431  -0.055043   0.004988   0.028488
   12  C  2  X   -0.032657   0.220334  -0.177672   0.250121   0.009311
   13  C  2  Y   -0.039429  -0.105578  -0.143390   0.037124  -0.198538
   14  C  2  Z    0.095518   0.020202   0.012034   0.022289  -0.208326
   15  C  2  S    2.048681  -0.698117  -0.547871   0.362806   0.006034
   16  C  2  X   -0.109862   0.880750  -0.620905   1.013024   0.104057
   17  C  2  Y   -0.068001  -0.510839  -0.729157   0.153173  -0.734748
   18  C  2  Z    0.113071   0.184277   0.049541  -0.006880  -0.754205
   19  C  3  S    0.107870   0.043354   0.042186   0.013910   0.009795
   20  C  3  S   -0.087784  -0.040436  -0.055043  -0.004979  -0.028532
   21  C  3  X    0.032655   0.220336  -0.177678  -0.250118  -0.009314
   22  C  3  Y    0.039414  -0.105598  -0.143424  -0.037129   0.198511
   23  C  3  Z    0.095530  -0.020181  -0.011999   0.022289  -0.208315
   24  C  3  S   -2.048639  -0.698180  -0.547844  -0.362860  -0.005946
   25  C  3  X    0.109821   0.880761  -0.620906  -1.013026  -0.104029
   26  C  3  Y    0.067961  -0.510951  -0.729277  -0.153168   0.734558
   27  C  3  Z    0.113061  -0.184180  -0.049368  -0.006951  -0.753935
   28  H  4  S    0.000005   0.001650  -0.029793   0.000002  -0.000005
   29  H  4  S    0.000103  -0.724354  -1.025374   0.000072  -0.000294
   30  H  5  S    0.025801   0.019641   0.046505  -0.009765   0.065554
   31  H  5  S   -0.733350   0.344204   0.940630  -0.491118   1.358068
   32  H  6  S   -0.025800   0.019651   0.046523   0.009761  -0.065531
   33  H  6  S    0.733388   0.344397   0.940892   0.491091  -1.357757
   34  H  7  S   -0.037610   0.000744  -0.051098   0.092080   0.009718
   35  H  7  S   -0.959810   0.926631  -0.888653   1.171872  -0.193390
   36  H  8  S   -0.032795  -0.039260  -0.024316  -0.080737  -0.047640
   37  H  8  S   -0.759564  -0.923085   0.193464  -0.955897  -0.861108
   38  H  9  S    0.032789  -0.039263  -0.024325   0.080736   0.047629
   39  H  9  S    0.759516  -0.923180   0.193334   0.955895   0.860986
   40  H 10  S    0.037602   0.000746  -0.051099  -0.092080  -0.009733
   41  H 10  S    0.959734   0.926623  -0.888709  -1.171871   0.193377

                     21         22         23         24         25
                    0.3656     0.4098     0.6582     0.6809     0.6928
                     A          A          A          A          A   
    1  C  1  S    0.079480  -0.000013   0.018033   0.000001  -0.011985
    2  C  1  S   -0.042196   0.000011  -0.114042   0.000000   0.082713
    3  C  1  X   -0.087285   0.000014  -0.157946  -0.000031   0.863480
    4  C  1  Y    0.349013  -0.000062  -0.002127  -0.000015   0.203400
    5  C  1  Z    0.000044   0.387117   0.000047  -0.462709  -0.000008
    6  C  1  S   -1.956612   0.000297   0.453808   0.000012   0.033823
    7  C  1  X   -0.300570   0.000036   0.051816   0.000019  -0.735993
    8  C  1  Y    2.216543  -0.000321  -0.244061   0.000007  -0.241947
    9  C  1  Z    0.000475   2.466292  -0.000076   0.949269   0.000017
   10  C  2  S   -0.048875   0.035739  -0.006291  -0.000126  -0.000912
   11  C  2  S   -0.013144   0.007060   0.135690  -0.071081   0.019715
   12  C  2  X    0.032999   0.029353  -0.073331   0.099664   0.244798
   13  C  2  Y    0.035050  -0.143585  -0.283882  -0.411728  -0.087965
   14  C  2  Z   -0.098464   0.125333  -0.471126   0.343805  -0.071068
   15  C  2  S    1.338153  -1.159604  -0.382098  -0.416179  -0.120318
   16  C  2  X    0.173575   0.101812   0.140412  -0.140640  -0.458820
   17  C  2  Y   -0.038920  -1.310054   0.598614   0.495547   0.187417
   18  C  2  Z   -1.535340   1.124865   0.637283  -0.383186   0.114485
   19  C  3  S   -0.048883  -0.035723  -0.006292   0.000127  -0.000912
   20  C  3  S   -0.013155  -0.007082   0.135697   0.071055   0.019722
   21  C  3  X    0.032978  -0.029361  -0.073323  -0.099686   0.244804
   22  C  3  Y    0.035041   0.143595  -0.283907   0.411706  -0.087936
   23  C  3  Z    0.098565   0.125285   0.471082   0.343857   0.071085
   24  C  3  S    1.338537   1.159240  -0.382181   0.416214  -0.120307
   25  C  3  X    0.173515  -0.101844   0.140401   0.140685  -0.458829
   26  C  3  Y   -0.038537   1.310066   0.598646  -0.495494   0.187376
   27  C  3  Z    1.535815   1.124391  -0.637214  -0.383267  -0.114500
   28  H  4  S   -0.000977  -0.000002  -0.155055  -0.000011  -0.125196
   29  H  4  S   -1.610562   0.000235   0.052487   0.000004   0.017970
   30  H  5  S    0.053267  -0.076542  -0.350123  -0.098705  -0.013506
   31  H  5  S    0.557865   0.066858   0.042725   0.040243   0.042367
   32  H  6  S    0.053288   0.076527  -0.350125   0.098657  -0.013496
   33  H  6  S    0.558091  -0.067078   0.042734  -0.040256   0.042367
   34  H  7  S    0.013578  -0.036988   0.165308   0.100143  -0.192917
   35  H  7  S    0.073868  -0.325439   0.096716   0.016847  -0.121480
   36  H  8  S    0.030245  -0.058322   0.202772   0.223230   0.226656
   37  H  8  S   -0.409241  -0.721020   0.079489   0.007494   0.141421
   38  H  9  S    0.030259   0.058306   0.202798  -0.223220   0.226646
   39  H  9  S   -0.409056   0.721151   0.079492  -0.007500   0.141419
   40  H 10  S    0.013585   0.036977   0.165324  -0.100115  -0.192927
   41  H 10  S    0.073927   0.325446   0.096721  -0.016836  -0.121482

                     26         27         28         29         30
                    0.7485     0.7497     0.7921     0.9144     0.9298
                     A          A          A          A          A   
    1  C  1  S   -0.070294  -0.000003  -0.006253  -0.000001  -0.004806
    2  C  1  S   -0.185611  -0.000003  -0.005473  -0.000027  -0.192919
    3  C  1  X   -0.092705  -0.000006  -0.427836   0.000087   0.412569
    4  C  1  Y   -0.062861  -0.000012  -0.442397  -0.000139  -0.714138
    5  C  1  Z    0.000003  -0.053500  -0.000018  -1.003222  -0.000010
    6  C  1  S   -0.184237  -0.000020  -0.038510   0.000015   0.185058
    7  C  1  X    0.051119  -0.000004   1.000084  -0.000283  -1.380235
    8  C  1  Y   -0.316895   0.000010   1.318126   0.000482   2.569764
    9  C  1  Z   -0.000002   0.225624   0.000049   1.953757   0.000791
   10  C  2  S    0.025790   0.001746  -0.000759  -0.047552  -0.000441
   11  C  2  S   -0.210129  -0.030358  -0.095473   0.165944  -0.146189
   12  C  2  X   -0.030605  -0.574643   0.408035  -0.016699  -0.408227
   13  C  2  Y   -0.546712   0.005373   0.121871   0.213599   0.217367
   14  C  2  Z    0.520331   0.147601   0.045942  -0.437854   0.146471
   15  C  2  S   -0.094879  -0.118656   0.611514  -0.570876   0.977903
   16  C  2  X    0.034310   1.145924  -1.194056   0.084318   1.208953
   17  C  2  Y    0.860391  -0.067888  -0.385524  -0.611451  -0.726652
   18  C  2  Z   -0.403016  -0.214062  -0.213766   1.050872  -0.729251
   19  C  3  S    0.025790  -0.001744  -0.000759   0.047552  -0.000475
   20  C  3  S   -0.210144   0.030323  -0.095455  -0.166037  -0.146308
   21  C  3  X   -0.030652   0.574630   0.408032   0.016533  -0.408343
   22  C  3  Y   -0.546709  -0.005416   0.121827  -0.213519   0.216791
   23  C  3  Z   -0.520338   0.147562  -0.045934  -0.437903  -0.145777
   24  C  3  S   -0.094864   0.118694   0.611533   0.571320   0.979421
   25  C  3  X    0.034400  -1.145896  -1.194048  -0.083817   1.209267
   26  C  3  Y    0.860391   0.067951  -0.385427   0.611195  -0.724682
   27  C  3  Z    0.403032  -0.214026   0.213743   1.051123   0.727795
   28  H  4  S   -0.273347  -0.000013  -0.379196  -0.000070  -0.363191
   29  H  4  S    0.195995   0.000000  -0.301466  -0.000252  -1.369435
   30  H  5  S    0.007459  -0.067354  -0.067561  -0.216713  -0.169055
   31  H  5  S   -0.141996   0.043474   0.171343  -0.271875   0.360935
   32  H  6  S    0.007451   0.067349  -0.067572   0.216635  -0.169528
   33  H  6  S   -0.141995  -0.043488   0.171314   0.271983   0.359668
   34  H  7  S    0.060952   0.350327  -0.281918  -0.116080  -0.010772
   35  H  7  S    0.162282   0.173412  -0.412361  -0.167400   0.329671
   36  H  8  S    0.112806  -0.239139   0.181065  -0.153910   0.030060
   37  H  8  S    0.176282  -0.134826   0.065776  -0.216832  -0.803484
   38  H  9  S    0.112789   0.239142   0.181064   0.153919   0.029976
   39  H  9  S    0.176269   0.134829   0.065804   0.216515  -0.803085
   40  H 10  S    0.060980  -0.350318  -0.281920   0.116090  -0.010813
   41  H 10  S    0.162294  -0.173397  -0.412340   0.167521   0.329884

                     31         32         33         34         35
                    0.9441     1.0024     1.0939     1.1051     1.1066
                     A          A          A          A          A   
    1  C  1  S    0.000002   0.005435  -0.001759  -0.028421   0.000012
    2  C  1  S    0.000262  -1.300523   0.407299   0.604138  -0.000268
    3  C  1  X   -0.000231  -0.065678  -0.169469  -0.141893   0.000055
    4  C  1  Y    0.000400   0.502634   0.140221   0.664998  -0.000276
    5  C  1  Z   -0.340471  -0.000030  -0.000000  -0.000035  -0.094137
    6  C  1  S   -0.000436   2.607021  -0.737629  -1.245913   0.000531
    7  C  1  X    0.000810   0.007812   0.438602   0.155093  -0.000049
    8  C  1  Y   -0.001519  -0.937704  -0.660718  -1.119337   0.000455
    9  C  1  Z    1.973378   0.000172  -0.000008   0.000230   0.538479
   10  C  2  S    0.012747  -0.051090   0.021957   0.004483  -0.002888
   11  C  2  S    0.166799  -0.021338  -0.025284  -0.304651   0.120359
   12  C  2  X    0.086499  -0.168767  -0.504563   0.004166  -0.423204
   13  C  2  Y    0.535006  -0.022452   0.022078   0.388697  -0.316798
   14  C  2  Z    0.435667  -0.038939  -0.084664   0.150829  -0.038254
   15  C  2  S   -1.483126  -0.290298  -0.123994   0.533395  -0.572043
   16  C  2  X   -0.220545   0.200552   0.403447   0.116606   0.576862
   17  C  2  Y   -1.831864  -0.270421   0.161225  -0.407084   0.138038
   18  C  2  Z   -0.859713   0.700378   0.115587  -0.040030   0.073052
   19  C  3  S   -0.012740  -0.051093   0.021958   0.004484   0.002887
   20  C  3  S   -0.166754  -0.021394  -0.025286  -0.304765  -0.120197
   21  C  3  X   -0.085997  -0.168776  -0.504588   0.004511   0.423187
   22  C  3  Y   -0.535299  -0.022531   0.022065   0.388974   0.316475
   23  C  3  Z    0.435879   0.039001   0.084670  -0.150870  -0.038100
   24  C  3  S    1.482277  -0.289992  -0.124003   0.533916   0.571760
   25  C  3  X    0.219112   0.200580   0.403480   0.116135  -0.576967
   26  C  3  Y    1.832868  -0.270132   0.161233  -0.407207  -0.137696
   27  C  3  Z   -0.860569  -0.700502  -0.115596   0.040102   0.072970
   28  H  4  S    0.000251  -0.346586   0.049175  -0.719053   0.000307
   29  H  4  S    0.000856   0.207017   0.692133   1.618221  -0.000673
   30  H  5  S    0.305132  -0.190860   0.326583  -0.365762   0.532829
   31  H  5  S    0.985120  -0.201033  -0.369449   0.421051  -0.643731
   32  H  6  S   -0.304895  -0.190909   0.326612  -0.366237  -0.532480
   33  H  6  S   -0.985664  -0.201199  -0.369486   0.421610   0.643289
   34  H  7  S    0.003023  -0.507168  -0.457196   0.272396  -0.699635
   35  H  7  S   -0.231462   0.196836   0.809126  -0.418247   1.119802
   36  H  8  S    0.014862  -0.247628   0.639626   0.212768  -0.039807
   37  H  8  S   -0.403752  -0.209839  -0.619770  -0.613305  -0.093805
   38  H  9  S   -0.014900  -0.247631   0.639640   0.212816   0.039667
   39  H  9  S    0.404753  -0.209782  -0.619795  -0.613263   0.094261
   40  H 10  S   -0.002935  -0.507170  -0.457227   0.272968   0.699402
   41  H 10  S    0.231020   0.196859   0.809179  -0.419176  -1.119481

                     36         37         38         39         40
                    1.1305     1.1420     1.1585     1.1974     1.4571
                     A          A          A          A          A   
    1  C  1  S   -0.000000  -0.011686   0.000001   0.013089  -0.072434
    2  C  1  S    0.000039  -0.782641   0.000057  -0.827842  -1.380673
    3  C  1  X   -0.000004   0.035914  -0.000004   0.037020  -0.004244
    4  C  1  Y    0.000008   0.033881   0.000011  -0.104855   0.096431
    5  C  1  Z    0.131146   0.000025  -0.139902  -0.000006  -0.000024
    6  C  1  S   -0.000049   1.162507  -0.000146   1.500439   5.394668
    7  C  1  X    0.000006  -0.145957   0.000003   0.289209  -0.055358
    8  C  1  Y   -0.000021   0.147600  -0.000002  -0.863717  -1.277714
    9  C  1  Z   -0.622637  -0.000100   0.434709   0.000056   0.000326
   10  C  2  S   -0.017198   0.022513   0.037515   0.002486   0.080622
   11  C  2  S    0.273881  -1.116085  -0.889321  -0.298097   1.259593
   12  C  2  X   -0.353425   0.066732  -0.194602   0.042760   0.051559
   13  C  2  Y    0.271073   0.026826   0.177101   0.241343   0.164257
   14  C  2  Z    0.209032  -0.320893  -0.308328   0.240335   0.054054
   15  C  2  S   -0.115611   2.007433   1.582989  -0.072474  -4.356183
   16  C  2  X    0.486897  -0.039752   0.301083  -0.352372  -0.107031
   17  C  2  Y   -0.081089  -0.201009  -0.326887  -0.081308  -0.661425
   18  C  2  Z   -0.312305   0.558774   0.590897   0.236327   0.722496
   19  C  3  S    0.017197   0.022512  -0.037518   0.002481   0.080602
   20  C  3  S   -0.273773  -1.116097   0.889325  -0.298110   1.259264
   21  C  3  X    0.353415   0.066744   0.194586   0.042765   0.051572
   22  C  3  Y   -0.271059   0.026798  -0.177125   0.241319   0.164234
   23  C  3  Z    0.208997   0.320878  -0.308324  -0.240344  -0.054094
   24  C  3  S    0.115405   2.007335  -1.582932  -0.072386  -4.355143
   25  C  3  X   -0.486878  -0.039775  -0.301050  -0.352380  -0.107063
   26  C  3  Y    0.081082  -0.201085   0.326944  -0.081234  -0.661229
   27  C  3  Z   -0.312250  -0.558736   0.590930  -0.236306  -0.722328
   28  H  4  S   -0.000010  -0.138735  -0.000009   0.902488  -0.334554
   29  H  4  S    0.000036  -0.278725   0.000040  -0.572426  -0.031047
   30  H  5  S   -0.577726   0.449638   0.336088  -0.471820   0.326429
   31  H  5  S    0.725299  -0.991933  -0.750061   0.421494   0.668837
   32  H  6  S    0.577681   0.449720  -0.336088  -0.471847   0.326309
   33  H  6  S   -0.725189  -0.991966   0.750038   0.421478   0.668756
   34  H  7  S   -0.377669   0.297105   0.218864   0.079105   0.435253
   35  H  7  S    0.689451  -0.782693  -0.402478  -0.392909   0.142209
   36  H  8  S    0.567023   0.081307   0.625193   0.426541   0.374464
   37  H  8  S   -0.857070  -0.473115  -1.174821  -0.359464   0.305938
   38  H  9  S   -0.567015   0.081224  -0.625221   0.426500   0.374363
   39  H  9  S    0.857087  -0.473043   1.174842  -0.359409   0.305904
   40  H 10  S    0.377655   0.297075  -0.218898   0.079076   0.435158
   41  H 10  S   -0.689383  -0.782688   0.402539  -0.392889   0.142116

                     41
                    1.5192
                     A   
    1  C  1  S    0.000008
    2  C  1  S    0.000177
    3  C  1  X   -0.000001
    4  C  1  Y   -0.000020
    5  C  1  Z    0.021930
    6  C  1  S   -0.000635
    7  C  1  X    0.000005
    8  C  1  Y    0.000172
    9  C  1  Z    1.838404
   10  C  2  S    0.085669
   11  C  2  S    1.598095
   12  C  2  X   -0.043034
   13  C  2  Y   -0.046786
   14  C  2  Z   -0.247590
   15  C  2  S   -4.369994
   16  C  2  X    0.133246
   17  C  2  Y   -0.089330
   18  C  2  Z    0.909764
   19  C  3  S   -0.085687
   20  C  3  S   -1.598333
   21  C  3  X    0.043022
   22  C  3  Y    0.046741
   23  C  3  Z   -0.247574
   24  C  3  S    4.370910
   25  C  3  X   -0.133220
   26  C  3  Y    0.089491
   27  C  3  Z    0.909944
   28  H  4  S    0.000030
   29  H  4  S    0.000002
   30  H  5  S    0.359334
   31  H  5  S    0.143441
   32  H  6  S   -0.359396
   33  H  6  S   -0.143589
   34  H  7  S    0.392749
   35  H  7  S    0.620187
   36  H  8  S    0.396930
   37  H  8  S    0.553022
   38  H  9  S   -0.397021
   39  H  9  S   -0.553056
   40  H 10  S   -0.392853
   41  H 10  S   -0.620184
 ...... END OF ROHF CALCULATION ......
 STEP CPU TIME =    13.81 TOTAL CPU TIME =       15.3 (    0.3 MIN)
 TOTAL WALL CLOCK TIME=       15.6 SECONDS, CPU UTILIZATION IS  98.26%
DAMPING PARAMETER ATT0:    13.30 AND BTT0     1.53
 Atom Pop(HCD) VOL(HCD) VOL_Free(HCD)
  1   3.61160  13.12071  22.04278
  2   3.60878  16.11377  23.42354
  3   3.60878  16.11376  23.42354
  4   0.31883   0.55779   6.02656
  5   0.30439   0.42783   6.41488
  6   0.30439   0.42783   6.41488
  7   0.31489   0.46264   6.15292
  8   0.30558   0.43753   5.97146
  9   0.30531   0.43753   5.90604
 10   0.31519   0.46264   6.21588
 Accuracy check: SUM of electrons   12.9977618296091     
 Hirshfeld overlap populations
   A   B   OVL(A,B)
   1   1   2.73253
   1   2   0.20913
   1   3   0.20913
   1   4   0.15827
   1   5   0.01950
   1   6   0.01950
   1   7   0.01773
   1   8   0.01817
   1   9   0.01817
   1  10   0.01773
   2   2   2.67250
   2   3   0.00960
   2   4   0.01544
   2   5   0.14269
   2   6   0.00018
   2   7   0.14338
   2   8   0.14209
   2   9   0.00447
   2  10   0.00206
   3   3   2.67250
   3   4   0.01544
   3   5   0.00018
   3   6   0.14269
   3   7   0.00206
   3   8   0.00447
   3   9   0.14209
   3  10   0.14338
   4   4   0.22094
   4   5   0.00544
   4   6   0.00544
   4   7   0.00235
   4   8   0.00060
   4   9   0.00060
   4  10   0.00235
   5   5   0.20387
   5   6   0.00001
   5   7   0.01731
   5   8   0.01717
   5   9   0.00009
   5  10   0.00002
   6   6   0.20387
   6   7   0.00002
   6   8   0.00009
   6   9   0.01717
   6  10   0.01731
   7   7   0.21375
   7   8   0.01737
   7   9   0.00054
   7  10   0.00212
   8   8   0.20482
   8   9   0.00575
   8  10   0.00054
   9   9   0.20482
   9  10   0.01737
  10  10   0.21375
            I   J         C6ij          C8ij           C10ij         BTT        
     EDISPTT/(kcal/mol)
 VDWsCBR    1   2       13.95424      297.23456     5731.96184        0.00000        0.00000
 VDWsCBR    1   3       13.95423      297.23440     5731.95857        0.00000        0.00000
 VDWsCBR    1   4        1.04453       17.01558      286.64066        0.00000        0.00000
 VDWsCBR    1   5        0.79925       12.08729      186.76473        0.00000       -0.00000
 VDWsCBR    1   6        0.79925       12.08724      186.76382        0.00000       -0.00000
 VDWsCBR    1   7        0.89283       13.70331      213.56257        0.00000        0.00000
 VDWsCBR    1   8        0.87240       13.12937      203.27237        0.00000       -0.00000
 VDWsCBR    1   9        0.87938       13.20285      203.54797        0.00000        0.00000
 VDWsCBR    1  10        0.88639       13.63357      213.20653        0.00000       -0.00000
 VDWsCBR    2   3       15.56610      348.97146     7030.04948        0.00044        0.00000
 VDWsCBR    2   4        1.14649       19.95842      349.47611        0.00000       -0.00000
 VDWsCBR    2   5        0.87455       14.20385      228.81752        0.00000        0.00000
 VDWsCBR    2   6        0.87455       14.20379      228.81642        0.00003        0.00000
 VDWsCBR    2   7        0.97742       16.09443      261.58945        0.00000        0.00000
 VDWsCBR    2   8        0.95492       15.43889      249.05770        0.00000        0.00000
 VDWsCBR    2   9        0.96272       15.53036      249.53988        0.00000        0.00000
 VDWsCBR    2  10        0.97022       16.00771      261.02515        0.00001       -0.00000
 VDWsCBR    3   4        1.14649       19.95840      349.47591        0.00000        0.00000
 VDWsCBR    3   5        0.87455       14.20384      228.81739        0.00003       -0.00000
 VDWsCBR    3   6        0.87455       14.20378      228.81629        0.00000        0.00000
 VDWsCBR    3   7        0.97742       16.09442      261.58930        0.00001        0.00000
 VDWsCBR    3   8        0.95492       15.43888      249.05756        0.00000        0.00000
 VDWsCBR    3   9        0.96272       15.53035      249.53974        0.00000        0.00000
 VDWsCBR    3  10        0.97022       16.00770      261.02500        0.00000        0.00000
 VDWsCBR    4   5        0.08427        0.94646       14.54661        0.00056        0.00000
 VDWsCBR    4   6        0.08427        0.94646       14.54654        0.00056        0.00000
 VDWsCBR    4   7        0.09347        1.07071       16.49669        0.00309        0.00000
 VDWsCBR    4   8        0.09152        1.02112       15.78497        0.00702       -0.00000
 VDWsCBR    4   9        0.09203        1.02354       15.75622        0.00696       -0.00000
 VDWsCBR    4  10        0.09300        1.06848       16.51733        0.00312        0.00000
 VDWsCBR    5   6        0.06829        0.68727        9.75778        0.04587       -0.00000
 VDWsCBR    5   7        0.07559        0.77769       11.05717        0.00000        0.00000
 VDWsCBR    5   8        0.07406        0.73986       10.58352        0.00000       -0.00000
 VDWsCBR    5   9        0.07442        0.74084       10.54678        0.02208       -0.00000
 VDWsCBR    5  10        0.07526        0.77682       11.08687        0.03637       -0.00000
 VDWsCBR    6   7        0.07559        0.77769       11.05711        0.03613       -0.00000
 VDWsCBR    6   8        0.07406        0.73985       10.58346        0.02223       -0.00000
 VDWsCBR    6   9        0.07442        0.74084       10.54673        0.00000        0.00000
 VDWsCBR    6  10        0.07526        0.77682       11.08681        0.00000        0.00000
 VDWsCBR    7   8        0.08199        0.83753       11.99304        0.00000        0.00000
 VDWsCBR    7   9        0.08240        0.83880       11.95380        0.01036       -0.00000
 VDWsCBR    7  10        0.08332        0.87874       12.56628        0.00499       -0.00000
 VDWsCBR    8   9        0.08073        0.79766       11.44324        0.00054        0.00000
 VDWsCBR    8  10        0.08163        0.83655       12.02400        0.01052       -0.00000
 VDWsCBR    9  10        0.08204        0.83780       11.98476        0.00000       -0.00000
 Final Energy      -0.0000000 Hartree    -0.0000 kcal/mol
 STEP CPU TIME =     0.13 TOTAL CPU TIME =       15.4 (    0.3 MIN)
 TOTAL WALL CLOCK TIME=       15.8 SECONDS, CPU UTILIZATION IS  97.90%

                    *****************************
                    END OF dDsC DISPERSION ENERGY
                    *****************************

 FINAL ENERGY INCLUDING dDsC DISPERSION:  -118.928623747111     

     ---------------------------------------------------------------------
     PROPERTIES FOR THE WB97X    DFT FUNCTIONAL (ROHF TYPE) DENSITY MATRIX
     ---------------------------------------------------------------------

          -----------------
          ENERGY COMPONENTS
          -----------------

         WAVEFUNCTION NORMALIZATION =       1.0000000000

                ONE ELECTRON ENERGY =    -306.9137808732
                TWO ELECTRON ENERGY =     112.4817670635
           NUCLEAR REPULSION ENERGY =      75.5033900625
                                      ------------------
                       TOTAL ENERGY =    -118.9286237471

 ELECTRON-ELECTRON POTENTIAL ENERGY =     112.4817670635
  NUCLEUS-ELECTRON POTENTIAL ENERGY =    -424.8131425542
   NUCLEUS-NUCLEUS POTENTIAL ENERGY =      75.5033900625
                                      ------------------
             TOTAL POTENTIAL ENERGY =    -236.8279854281
               TOTAL KINETIC ENERGY =     117.8993616810
                 VIRIAL RATIO (V/T) =       2.0087300054

          ---------------------------------------
          MULLIKEN AND LOWDIN POPULATION ANALYSES
          ---------------------------------------

     ATOMIC MULLIKEN POPULATION IN EACH MOLECULAR ORBITAL

                      1          2          3          4          5

                  2.000000   2.000000   2.000000   2.000000   2.000000

    1             0.027778   0.001509   1.970524   0.529786   0.135456
    2             0.899893   1.082922   0.014458   0.581403   0.688491
    3             1.069760   0.913061   0.014453   0.581417   0.688485
    4             0.000031   0.000000   0.000560   0.026481   0.000000
    5             0.000433   0.000386  -0.000004   0.042997   0.094456
    6             0.000503   0.000316  -0.000004   0.042996   0.094456
    7             0.000362   0.000490   0.000007   0.046288   0.075028
    8             0.000366   0.000486  -0.000000   0.051170   0.074302
    9             0.000440   0.000413  -0.000000   0.051172   0.074299
   10             0.000435   0.000417   0.000007   0.046290   0.075027

                      6          7          8          9         10

                  2.000000   2.000000   2.000000   2.000000   2.000000

    1             0.824760   0.394179   0.090238   0.271270   0.000089
    2             0.277578   0.475746   0.534557   0.535647   0.555596
    3             0.277578   0.475754   0.534577   0.535639   0.555585
    4             0.317953   0.113090   0.001306   0.000000  -0.000000
    5             0.030103   0.224498   0.040060   0.098187   0.019813
    6             0.030103   0.224505   0.040069   0.098178   0.019812
    7             0.040974   0.004905   0.286955   0.052859   0.279839
    8             0.079986   0.041209   0.092638   0.177682   0.144718
    9             0.079988   0.041210   0.092627   0.177692   0.144717
   10             0.040976   0.004905   0.286974   0.052845   0.279831

                     11         12         13

                  2.000000   2.000000   1.000000

    1             0.461687   0.497784   0.918960
    2             0.534054   0.323530  -0.001235
    3             0.534036   0.323527  -0.001235
    4            -0.000000   0.384437   0.001068
    5             0.223911   0.056725   0.002804
    6             0.223903   0.056727   0.002804
    7             0.004428   0.017754   0.029492
    8             0.006777   0.160879   0.008925
    9             0.006777   0.160882   0.008925
   10             0.004427   0.017755   0.029492

     ATOMIC SPIN POPULATION (ALPHA MINUS BETA)
       ATOM         MULL.POP.                    LOW.POP.
    1 C             0.918960                     0.885694
    2 C            -0.001235                     0.004550
    3 C            -0.001235                     0.004550
    4 H             0.001068                     0.001319
    5 H             0.002804                     0.003879
    6 H             0.002804                     0.003879
    7 H             0.029492                     0.036377
    8 H             0.008925                     0.011688
    9 H             0.008925                     0.011688
   10 H             0.029492                     0.036377

               ----- POPULATIONS IN EACH AO -----
                             MULLIKEN      LOWDIN
              1  C  1  S      1.99748     1.98888
              2  C  1  S      0.67380     0.56188
              3  C  1  X      0.58331     0.56944
              4  C  1  Y      0.70453     0.64300
              5  C  1  Z      0.69813     0.64784
              6  C  1  S      0.58592     0.44249
              7  C  1  X      0.41704     0.44086
              8  C  1  Y      0.29197     0.44557
              9  C  1  Z      0.17184     0.39081
             10  C  2  S      1.99763     1.98890
             11  C  2  S      0.65876     0.55325
             12  C  2  X      0.70213     0.63154
             13  C  2  Y      0.70741     0.64194
             14  C  2  Z      0.70671     0.64977
             15  C  2  S      0.69458     0.44246
             16  C  2  X      0.38470     0.49930
             17  C  2  Y      0.35451     0.48203
             18  C  2  Z      0.29622     0.44529
             19  C  3  S      1.99763     1.98890
             20  C  3  S      0.65876     0.55325
             21  C  3  X      0.70213     0.63154
             22  C  3  Y      0.70741     0.64194
             23  C  3  Z      0.70671     0.64977
             24  C  3  S      0.69458     0.44246
             25  C  3  X      0.38470     0.49930
             26  C  3  Y      0.35450     0.48203
             27  C  3  Z      0.29622     0.44529
             28  H  4  S      0.54656     0.52076
             29  H  4  S      0.29837     0.37129
             30  H  5  S      0.54181     0.51795
             31  H  5  S      0.29256     0.36419
             32  H  6  S      0.54181     0.51795
             33  H  6  S      0.29256     0.36419
             34  H  7  S      0.53591     0.51428
             35  H  7  S      0.30347     0.37209
             36  H  8  S      0.53946     0.51701
             37  H  8  S      0.29968     0.36858
             38  H  9  S      0.53946     0.51701
             39  H  9  S      0.29968     0.36858
             40  H 10  S      0.53591     0.51428
             41  H 10  S      0.30347     0.37209

          ----- MULLIKEN ATOMIC OVERLAP POPULATIONS -----
          (OFF-DIAGONAL ELEMENTS NEED TO BE MULTIPLIED BY 2)

             1           2           3           4           5

    1    5.3632649
    2    0.3160152   5.1455836
    3    0.3160490  -0.0645722   5.1455443
    4    0.3924796  -0.0407128  -0.0407144   0.5326459
    5   -0.0346198   0.3839802   0.0037236  -0.0031244   0.5395953
    6   -0.0346219   0.0037244   0.3839840  -0.0031248  -0.0001084
    7   -0.0508146   0.3762274  -0.0001496   0.0003997  -0.0300882
    8   -0.0464578   0.3853381  -0.0027933   0.0033383  -0.0249237
    9   -0.0464566  -0.0027935   0.3853347   0.0033384   0.0000475
   10   -0.0508166  -0.0001490   0.3762302   0.0003997  -0.0001127

             6           7           8           9          10

    6    0.5395944
    7   -0.0001127   0.5766840
    8    0.0000475  -0.0347429   0.5558094
    9   -0.0249247  -0.0004442   0.0039664   0.5558162
   10   -0.0300893   0.0024202  -0.0004443  -0.0347430   0.5766840

          TOTAL MULLIKEN AND LOWDIN ATOMIC POPULATIONS
       ATOM         MULL.POP.    CHARGE          LOW.POP.     CHARGE
    1 C             6.124021   -0.124021         6.130777   -0.130777
    2 C             6.502642   -0.502642         6.334492   -0.334492
    3 C             6.502636   -0.502636         6.334490   -0.334490
    4 H             0.844925    0.155075         0.892047    0.107953
    5 H             0.834369    0.165631         0.882138    0.117862
    6 H             0.834369    0.165631         0.882138    0.117862
    7 H             0.839379    0.160621         0.886370    0.113630
    8 H             0.839138    0.160862         0.885588    0.114412
    9 H             0.839141    0.160859         0.885589    0.114411
   10 H             0.839379    0.160621         0.886370    0.113630

          -------------------------------
          BOND ORDER AND VALENCE ANALYSIS     BOND ORDER THRESHOLD=0.050
          -------------------------------

                   BOND                       BOND                       BOND
  ATOM PAIR DIST  ORDER      ATOM PAIR DIST  ORDER      ATOM PAIR DIST  ORDER
    1   2  1.490  0.972        1   3  1.490  0.973        1   4  1.085  0.953
    2   5  1.093  0.955        2   7  1.101  0.936        2   8  1.095  0.951
    3   6  1.093  0.955        3   9  1.095  0.951        3  10  1.101  0.936

                       TOTAL       BONDED        FREE
      ATOM            VALENCE     VALENCE     VALENCE
    1 C                 3.718       2.873       0.844
    2 C                 3.787       3.787       0.000
    3 C                 3.787       3.787       0.000
    4 H                 0.942       0.942       0.000
    5 H                 0.933       0.933       0.000
    6 H                 0.933       0.933       0.000
    7 H                 0.927       0.926       0.001
    8 H                 0.933       0.932       0.000
    9 H                 0.933       0.932       0.000
   10 H                 0.927       0.926       0.001

          -----------------------------------------
          ATOMIC SPIN DENSITY AT THE NUCLEUS (A.U.)
          -----------------------------------------
                            SPIN DENS    ALPHA DENS     BETA DENS
    1  C            6.0     0.0391389      59.13883      59.09969
    2  C            6.0     0.0023031      59.10523      59.10292
    3  C            6.0     0.0023032      59.10522      59.10292
    4  H            1.0     0.0010238       0.21802       0.21700
    5  H            1.0     0.0021505       0.21728       0.21513
    6  H            1.0     0.0021505       0.21728       0.21513
    7  H            1.0     0.0169189       0.22199       0.20507
    8  H            1.0     0.0056796       0.21807       0.21239
    9  H            1.0     0.0056796       0.21807       0.21239
   10  H            1.0     0.0169190       0.22199       0.20507

          ---------------------
          ELECTROSTATIC MOMENTS
          ---------------------

 POINT   1           X           Y           Z (BOHR)    CHARGE
                 0.011149    0.037721    0.000000       -0.00 (A.U.)
         DX          DY          DZ         /D/  (DEBYE)
    -0.257493   -0.134337   -0.000026    0.290429
 ...... END OF PROPERTY EVALUATION ......
 STEP CPU TIME =     0.00 TOTAL CPU TIME =       15.4 (    0.3 MIN)
 TOTAL WALL CLOCK TIME=       15.8 SECONDS, CPU UTILIZATION IS  97.90%
 Deallocating dDsC arrays
                580000  WORDS OF DYNAMIC MEMORY USED
 EXECUTION OF GAMESS TERMINATED NORMALLY Mon Oct  5 16:35:45 2015
 DDI: 263640 bytes (0.3 MB / 0 MWords) used by master data server.

 ----------------------------------------
 CPU timing information for all processes
 ========================================
 0: 9.628 + 5.803 = 15.431
 ----------------------------------------
 ddikick.x: exited gracefully.
unset echo
----- accounting info -----
Files used on the master node lcmd44.cluster were:
-rw-r--r-- 1 petragli lcmd   32517 Oct  5 16:35 /scratch/petragli/12427.slurm/G2-148.146.dat
-rw-r--r-- 1 petragli lcmd     751 Oct  5 16:35 /scratch/petragli/12427.slurm/G2-148.146.F05
-rw-r--r-- 1 petragli lcmd 2094080 Oct  5 16:35 /scratch/petragli/12427.slurm/G2-148.146.F10
-rw-r--r-- 1 petragli lcmd     751 Oct  5 16:35 /scratch/petragli/12427.slurm/G2-148.146.inp
ls: No match.
ls: No match.
ls: No match.
Mon Oct  5 16:35:48 CEST 2015
0.089u 0.026s 0:18.97 0.5%	0+0k 8+176io 0pf+0w
