----- GAMESS execution script 'rungms' -----
This job is running on host lcmd44.cluster
under operating system Linux at Wed Sep 30 13:00:20 CEST 2015
Available scratch disk space (Kbyte units) at beginning of the job is
Filesystem      1K-blocks  Used  Available Use% Mounted on
/dev/md1       1714180500 72640 1696691464   1% /scratch
GAMESS temporary binary files will be written to /scratch/petragli/10170.slurm
GAMESS supplementary output files will be written to /scratch/petragli/10170.slurm
Copying input file G2-148.146.inp to your run's scratch directory...
cp G2-148.146.inp /scratch/petragli/10170.slurm/G2-148.146.F05
unset echo
/home/petragli/wb97xddsc/gamess-all/gamess/ddikick.x /home/petragli/wb97xddsc/gamess-all/gamess/gamess.00.x G2-148.146 -ddi 1 1 lcmd44.cluster -scr /scratch/petragli/10170.slurm

 Distributed Data Interface kickoff program.
 Initiating 1 compute processes on 1 nodes to run the following command:
 /home/petragli/wb97xddsc/gamess-all/gamess/gamess.00.x G2-148.146 

          ******************************************************
          *         GAMESS VERSION =  5 DEC 2014 (R1)          *
          *             FROM IOWA STATE UNIVERSITY             *
          * M.W.SCHMIDT, K.K.BALDRIDGE, J.A.BOATZ, S.T.ELBERT, *
          *   M.S.GORDON, J.H.JENSEN, S.KOSEKI, N.MATSUNAGA,   *
          *          K.A.NGUYEN, S.J.SU, T.L.WINDUS,           *
          *       TOGETHER WITH M.DUPUIS, J.A.MONTGOMERY       *
          *         J.COMPUT.CHEM.  14, 1347-1363(1993)        *
          **************** 64 BIT INTEL VERSION ****************

  SINCE 1993, STUDENTS AND POSTDOCS WORKING AT IOWA STATE UNIVERSITY
  AND ALSO IN THEIR VARIOUS JOBS AFTER LEAVING ISU HAVE MADE IMPORTANT
  CONTRIBUTIONS TO THE CODE:
     IVANA ADAMOVIC, CHRISTINE AIKENS, YURI ALEXEEV, POOJA ARORA,
     ANDREY ASADCHEV, ROB BELL, PRADIPTA BANDYOPADHYAY, JONATHAN BENTZ,
     BRETT BODE, KURT BRORSEN, CALEB CARLIN, GALINA CHABAN, WEI CHEN,
     CHEOL HO CHOI, PAUL DAY, ALBERT DEFUSCO, NUWAN DESILVA, TIM DUDLEY,
     DMITRI FEDOROV, GRAHAM FLETCHER, MARK FREITAG, KURT GLAESEMANN,
     DAN KEMP, GRANT MERRILL, NORIYUKI MINEZAWA, JONATHAN MULLIN,
     TAKESHI NAGATA, SEAN NEDD, HEATHER NETZLOFF, BOSILJKA NJEGIC, RYAN OLSON,
     MIKE PAK, SPENCER PRUITT, LUKE ROSKOP, JIM SHOEMAKER, LYUDMILA SLIPCHENKO,
     TONY SMITH, SAROM SOK, JIE SONG, TETSUYA TAKETSUGU, SIMON WEBB,
     PENG XU, SOOHAENG YOO, FEDERICO ZAHARIEV

  ADDITIONAL CODE HAS BEEN PROVIDED BY COLLABORATORS IN OTHER GROUPS:
     IOWA STATE UNIVERSITY:
          JOE IVANIC, AARON WEST, LAIMUTIS BYTAUTAS, KLAUS RUEDENBERG
     UNIVERSITY OF TOKYO: KIMIHIKO HIRAO, TAKAHITO NAKAJIMA,
          TAKAO TSUNEDA, MUNEAKI KAMIYA, SUSUMU YANAGISAWA,
          KIYOSHI YAGI, MAHITO CHIBA, SEIKEN TOKURA, NAOAKI KAWAKAMI
     UNIVERSITY OF AARHUS: FRANK JENSEN
     UNIVERSITY OF IOWA: VISVALDAS KAIRYS, HUI LI
     NATIONAL INST. OF STANDARDS AND TECHNOLOGY: WALT STEVENS, DAVID GARMER
     UNIVERSITY OF PISA: BENEDETTA MENNUCCI, JACOPO TOMASI
     UNIVERSITY OF MEMPHIS: HENRY KURTZ, PRAKASHAN KORAMBATH
     UNIVERSITY OF ALBERTA: TOBY ZENG, MARIUSZ KLOBUKOWSKI
     UNIVERSITY OF NEW ENGLAND: MARK SPACKMAN
     MIE UNIVERSITY: HIROAKI UMEDA
     NAT. INST. OF ADVANCED INDUSTRIAL SCIENCE AND TECHNOLOGY: KAZUO KITAURA
     MICHIGAN STATE UNIVERSITY:
          KAROL KOWALSKI, MARTA WLOCH, JEFFREY GOUR, JESSE LUTZ,
          WEI LI, PIOTR PIECUCH
     UNIVERSITY OF SILESIA: MONIKA MUSIAL, STANISLAW KUCHARSKI
     FACULTES UNIVERSITAIRES NOTRE-DAME DE LA PAIX:
          OLIVIER QUINET, BENOIT CHAMPAGNE
     UNIVERSITY OF CALIFORNIA - SANTA BARBARA: BERNARD KIRTMAN
     INSTITUTE FOR MOLECULAR SCIENCE:
          KAZUYA ISHIMURA, MICHIO KATOUDA, AND SHIGERU NAGASE
     UNIVERSITY OF NOTRE DAME: ANNA POMOGAEVA, DAN CHIPMAN
     KYUSHU UNIVERSITY:
          HARUYUKI NAKANO,
          FENG LONG GU, JACEK KORCHOWIEC, MARCIN MAKOWSKI, AND YURIKO AOKI,
          HIROTOSHI MORI AND EISAKU MIYOSHI
     PENNSYLVANIA STATE UNIVERSITY:
          TZVETELIN IORDANOV, CHET SWALINA, JONATHAN SKONE,
          SHARON HAMMES-SCHIFFER
     WASEDA UNIVERSITY:
          MASATO KOBAYASHI, TOMOKO AKAMA, TSUGUKI TOUMA,
          TAKESHI YOSHIKAWA, YASUHIRO IKABATA, HIROMI NAKAI
     NANJING UNIVERSITY: SHUHUA LI
     UNIVERSITY OF NEBRASKA:
          PEIFENG SU, DEJUN SI, NANDUN THELLAMUREGE, YALI WANG, HUI LI
     UNIVERSITY OF ZURICH: ROBERTO PEVERATI, KIM BALDRIDGE
     N. COPERNICUS UNIVERSITY AND JACKSON STATE UNIVERSITY:
          MARIA BARYSZ
     UNIVERSITY OF COPENHAGEN: CASPER STEINMANN
     TOKYO INSTITUTE OF TECHNOLOGY: HIROYA NAKATA
     NAGOYA UNIVERSITY: YOSHIO NISHIMOTO, STEPHAN IRLE

 EXECUTION OF GAMESS BEGUN Wed Sep 30 13:00:21 2015

            ECHO OF THE FIRST FEW INPUT CARDS -
 INPUT CARD> $DFT NRAD=24 NLEB=110 DDSC=.t. $END                                            
 INPUT CARD> $BASIS GBASIS=N31 NGAUSS=6 $END                                                
 INPUT CARD> $CONTRL MAXIT=200 RUNTYP=ENERGY EXETYP=RUN SCFTYP=ROHF DFTTYP=wB97X            
 INPUT CARD>ICHARG=0 MULT=2 $END                                                            
 INPUT CARD> $SCF DIRSCF=.t. $END                                                           
 INPUT CARD> $SYSTEM MWORDS=8 $END                                                          
 INPUT CARD> $DATA                                                                          
 INPUT CARD> Should be setted!                                                              
 INPUT CARD> C1                                                                             
 INPUT CARD> C     6.00     0.014223     0.543850     0.000000                              
 INPUT CARD> C     6.00     0.014223    -0.199742     1.291572                              
 INPUT CARD> C     6.00     0.014223    -0.199742    -1.291572                              
 INPUT CARD> H     1.00    -0.322890     1.575329     0.000000                              
 INPUT CARD> H     1.00     0.221417     0.459174     2.138477                              
 INPUT CARD> H     1.00     0.221417     0.459174    -2.138477                              
 INPUT CARD> H     1.00    -0.955157    -0.684629     1.484633                              
 INPUT CARD> H     1.00     0.767181    -0.995308     1.286239                              
 INPUT CARD> H     1.00     0.767181    -0.995308    -1.286239                              
 INPUT CARD> H     1.00    -0.955157    -0.684629    -1.484633                              
 INPUT CARD> $END                                                                           
    8000000 WORDS OF MEMORY AVAILABLE

     BASIS OPTIONS
     -------------
     GBASIS=N31          IGAUSS=       6      POLAR=NONE    
     NDFUNC=       0     NFFUNC=       0     DIFFSP=       F
     NPFUNC=       0      DIFFS=       F     BASNAM=        


     RUN TITLE
     ---------
  Should be setted!                                                              

 THE POINT GROUP OF THE MOLECULE IS C1      
 THE ORDER OF THE PRINCIPAL AXIS IS     0

 ATOM      ATOMIC                      COORDINATES (BOHR)
           CHARGE         X                   Y                   Z
 C           6.0     0.0268775727        1.0277274784        0.0000000000
 C           6.0     0.0268775727       -0.3774576482        2.4407171734
 C           6.0     0.0268775727       -0.3774576482       -2.4407171734
 H           1.0    -0.6101736242        2.9769401505        0.0000000000
 H           1.0     0.4184174590        0.8677130407        4.0411355610
 H           1.0     0.4184174590        0.8677130407       -4.0411355610
 H           1.0    -1.8049850053       -1.2937612132        2.8055495623
 H           1.0     1.4497618730       -1.8808593934        2.4306392647
 H           1.0     1.4497618730       -1.8808593934       -2.4306392647
 H           1.0    -1.8049850053       -1.2937612132       -2.8055495623

          INTERNUCLEAR DISTANCES (ANGS.)
          ------------------------------

                1 C          2 C          3 C          4 H          5 H     

   1 C       0.0000000    1.4903313 *  1.4903313 *  1.0851701 *  2.1501589 *
   2 C       1.4903313 *  0.0000000    2.5831440 *  2.2209639 *  1.0928622 *
   3 C       1.4903313 *  2.5831440 *  0.0000000    2.2209639 *  3.4989049  
   4 H       1.0851701 *  2.2209639 *  2.2209639 *  0.0000000    2.4728841 *
   5 H       2.1501589 *  1.0928622 *  3.4989049    2.4728841 *  0.0000000  
   6 H       2.1501589 *  3.4989049    1.0928622 *  2.4728841 *  4.2769540  
   7 H       2.1570798 *  1.1009476 *  2.9802898 *  2.7769240 *  1.7663872 *
   8 H       2.1425134 *  1.0953992 *  2.8008892 *  3.0742219    1.7719159 *
   9 H       2.1425134 *  2.8008892 *  1.0953992 *  3.0742219    3.7605925  
  10 H       2.1570798 *  2.9802898 *  1.1009476 *  2.7769240 *  3.9773783  

                6 H          7 H          8 H          9 H         10 H     

   1 C       2.1501589 *  2.1570798 *  2.1425134 *  2.1425134 *  2.1570798 *
   2 C       3.4989049    1.1009476 *  1.0953992 *  2.8008892 *  2.9802898 *
   3 C       1.0928622 *  2.9802898 *  2.8008892 *  1.0953992 *  1.1009476 *
   4 H       2.4728841 *  2.7769240 *  3.0742219    3.0742219    2.7769240 *
   5 H       4.2769540    1.7663872 *  1.7719159 *  3.7605925    3.9773783  
   6 H       0.0000000    3.9773783    3.7605925    1.7719159 *  1.7663872 *
   7 H       3.9773783    0.0000000    1.7613432 *  3.2773009    2.9692660 *
   8 H       3.7605925    1.7613432 *  0.0000000    2.5724780 *  3.2773009  
   9 H       1.7719159 *  3.2773009    2.5724780 *  0.0000000    1.7613432 *
  10 H       1.7663872 *  2.9692660 *  3.2773009    1.7613432 *  0.0000000  

  * ... LESS THAN  3.000


     ATOMIC BASIS SET
     ----------------
 THE CONTRACTED PRIMITIVE FUNCTIONS HAVE BEEN UNNORMALIZED
 THE CONTRACTED BASIS FUNCTIONS ARE NOW NORMALIZED TO UNITY

  SHELL TYPE  PRIMITIVE        EXPONENT          CONTRACTION COEFFICIENT(S)

 C         

      1   S       1          3047.5248800    0.001834737132
      1   S       2           457.3695180    0.014037322813
      1   S       3           103.9486850    0.068842622264
      1   S       4            29.2101553    0.232184443216
      1   S       5             9.2866630    0.467941348435
      1   S       6             3.1639270    0.362311985337

      2   L       7             7.8682723   -0.119332419775    0.068999066591
      2   L       8             1.8812885   -0.160854151696    0.316423960957
      2   L       9             0.5442493    1.143456437840    0.744308290898

      3   L      10             0.1687145    1.000000000000    1.000000000000

 C         

      4   S      11          3047.5248800    0.001834737132
      4   S      12           457.3695180    0.014037322813
      4   S      13           103.9486850    0.068842622264
      4   S      14            29.2101553    0.232184443216
      4   S      15             9.2866630    0.467941348435
      4   S      16             3.1639270    0.362311985337

      5   L      17             7.8682723   -0.119332419775    0.068999066591
      5   L      18             1.8812885   -0.160854151696    0.316423960957
      5   L      19             0.5442493    1.143456437840    0.744308290898

      6   L      20             0.1687145    1.000000000000    1.000000000000

 C         

      7   S      21          3047.5248800    0.001834737132
      7   S      22           457.3695180    0.014037322813
      7   S      23           103.9486850    0.068842622264
      7   S      24            29.2101553    0.232184443216
      7   S      25             9.2866630    0.467941348435
      7   S      26             3.1639270    0.362311985337

      8   L      27             7.8682723   -0.119332419775    0.068999066591
      8   L      28             1.8812885   -0.160854151696    0.316423960957
      8   L      29             0.5442493    1.143456437840    0.744308290898

      9   L      30             0.1687145    1.000000000000    1.000000000000

 H         

     10   S      31            18.7311370    0.033494604338
     10   S      32             2.8253944    0.234726953484
     10   S      33             0.6401217    0.813757326146

     11   S      34             0.1612778    1.000000000000

 H         

     12   S      35            18.7311370    0.033494604338
     12   S      36             2.8253944    0.234726953484
     12   S      37             0.6401217    0.813757326146

     13   S      38             0.1612778    1.000000000000

 H         

     14   S      39            18.7311370    0.033494604338
     14   S      40             2.8253944    0.234726953484
     14   S      41             0.6401217    0.813757326146

     15   S      42             0.1612778    1.000000000000

 H         

     16   S      43            18.7311370    0.033494604338
     16   S      44             2.8253944    0.234726953484
     16   S      45             0.6401217    0.813757326146

     17   S      46             0.1612778    1.000000000000

 H         

     18   S      47            18.7311370    0.033494604338
     18   S      48             2.8253944    0.234726953484
     18   S      49             0.6401217    0.813757326146

     19   S      50             0.1612778    1.000000000000

 H         

     20   S      51            18.7311370    0.033494604338
     20   S      52             2.8253944    0.234726953484
     20   S      53             0.6401217    0.813757326146

     21   S      54             0.1612778    1.000000000000

 H         

     22   S      55            18.7311370    0.033494604338
     22   S      56             2.8253944    0.234726953484
     22   S      57             0.6401217    0.813757326146

     23   S      58             0.1612778    1.000000000000

 TOTAL NUMBER OF BASIS SET SHELLS             =   23
 NUMBER OF CARTESIAN GAUSSIAN BASIS FUNCTIONS =   41
 NUMBER OF ELECTRONS                          =   25
 CHARGE OF MOLECULE                           =    0
 SPIN MULTIPLICITY                            =    2
 NUMBER OF OCCUPIED ORBITALS (ALPHA)          =   13
 NUMBER OF OCCUPIED ORBITALS (BETA )          =   12
 TOTAL NUMBER OF ATOMS                        =   10
 THE NUCLEAR REPULSION ENERGY IS       75.5033900625

     LEBEDEV GRID-BASED DFT OPTIONS
     ------------------------------
     DFTTYP=WB97X   
     NRAD  =      24     NLEB  =     110
     NRAD0 =      24     NLEB0 =     110
     SWOFF =    5.00E-03 (PURE SCF -> DFT)
     SWITCH=    3.00E-04 (COARSE -> TIGHT GRID)
     THRESH=    0.00E+00 GTHRE=    1.00E+00

     LC/CAM PARAMETERS
     -----------------
     ALPHAC =.15771  BETAC =.84229  CAMMU = 0.300  CAMVWN =  0.00  CAMLYP =  0.00

 GRIMME'S EMPIRICAL DISPERSION CORRECTION= F
 TURNING ON dDsC DISPERSION CORRECTION

     $CONTRL OPTIONS
     ---------------
 SCFTYP=ROHF         RUNTYP=ENERGY       EXETYP=RUN     
 MPLEVL=       0     CITYP =NONE         CCTYP =NONE         VBTYP =NONE    
 DFTTYP=WB97X        TDDFT =NONE    
 MULT  =       2     ICHARG=       0     NZVAR =       0     COORD =UNIQUE  
 PP    =NONE         RELWFN=NONE         LOCAL =NONE         NUMGRD=       F
 ISPHER=      -1     NOSYM =       0     MAXIT =     200     UNITS =ANGS    
 PLTORB=       F     MOLPLT=       F     AIMPAC=       F     FRIEND=        
 NPRINT=       7     IREST =       0     GEOM  =INPUT   
 NORMF =       0     NORMP =       0     ITOL  =      20     ICUT  =       9
 INTTYP=BEST         GRDTYP=BEST         QMTTOL= 1.0E-06

     $SYSTEM OPTIONS
     ---------------
  REPLICATED MEMORY=     8000000 WORDS (ON EVERY NODE).
 DISTRIBUTED MEMDDI=           0 MILLION WORDS IN AGGREGATE,
 MEMDDI DISTRIBUTED OVER   1 PROCESSORS IS           0 WORDS/PROCESSOR.
 TOTAL MEMORY REQUESTED ON EACH PROCESSOR=     8000000 WORDS.
 TIMLIM=      525600.00 MINUTES, OR     365.0 DAYS.
 PARALL= F  BALTYP=  DLB     KDIAG=    0  COREFL= F
 MXSEQ2=     300 MXSEQ3=     150  mem10=         0

          ----------------
          PROPERTIES INPUT
          ----------------

     MOMENTS            FIELD           POTENTIAL          DENSITY
 IEMOM =       1   IEFLD =       0   IEPOT =       0   IEDEN =       0
 WHERE =COMASS     WHERE =NUCLEI     WHERE =NUCLEI     WHERE =NUCLEI  
 OUTPUT=BOTH       OUTPUT=BOTH       OUTPUT=BOTH       OUTPUT=BOTH    
 IEMINT=       0   IEFINT=       0                     IEDINT=       0
                                                       MORB  =       0
          EXTRAPOLATION IN EFFECT
          DIIS IN EFFECT
 ORBITAL PRINTING OPTION: NPREO=     1    41     2     1

     -------------------------------
     INTEGRAL TRANSFORMATION OPTIONS
     -------------------------------
     NWORD  =            0
     CUTOFF = 1.0E-09     MPTRAN =       0
     DIRTRF =       T     AOINTS =DUP     

          ----------------------
          INTEGRAL INPUT OPTIONS
          ----------------------
 NOPK  =       1 NORDER=       0 SCHWRZ=       T

     ------------------------------------------
     THE POINT GROUP IS C1 , NAXIS= 0, ORDER= 1
     ------------------------------------------

     DIMENSIONS OF THE SYMMETRY SUBSPACES ARE
 A   =   41

 ..... DONE SETTING UP THE RUN .....
 STEP CPU TIME =     0.01 TOTAL CPU TIME =        0.0 (    0.0 MIN)
 TOTAL WALL CLOCK TIME=        0.0 SECONDS, CPU UTILIZATION IS  25.00%
 Tang and Toennies damping function for C6

          ********************
          1 ELECTRON INTEGRALS
          ********************
 ...... END OF ONE-ELECTRON INTEGRALS ......
 STEP CPU TIME =     0.00 TOTAL CPU TIME =        0.0 (    0.0 MIN)
 TOTAL WALL CLOCK TIME=        0.1 SECONDS, CPU UTILIZATION IS  11.11%

          -------------
          GUESS OPTIONS
          -------------
          GUESS =HUCKEL            NORB  =       0          NORDER=       0
          MIX   =       F          PRTMO =       F          PUNMO =       F
          TOLZ  = 1.0E-08          TOLE  = 1.0E-05
          SYMDEN=       F          PURIFY=       F

 INITIAL GUESS ORBITALS GENERATED BY HUCKEL   ROUTINE.
 HUCKEL GUESS REQUIRES     21119 WORDS.

 SYMMETRIES FOR INITIAL GUESS ORBITALS FOLLOW.  ALPHA SET(S).
    13 ORBITALS ARE OCCUPIED (    3 CORE ORBITALS).
     4=A        5=A        6=A        7=A        8=A        9=A       10=A   
    11=A       12=A       13=A       14=A       15=A       16=A       17=A   
    18=A       19=A       20=A       21=A       22=A       23=A   

 SYMMETRIES FOR INITIAL GUESS ORBITALS FOLLOW.   BETA SET(S).
    12 ORBITALS ARE OCCUPIED (    3 CORE ORBITALS).
     4=A        5=A        6=A        7=A        8=A        9=A       10=A   
    11=A       12=A       13=A       14=A       15=A       16=A       17=A   
    18=A       19=A       20=A       21=A       22=A   
 ...... END OF INITIAL ORBITAL SELECTION ......
 STEP CPU TIME =     0.00 TOTAL CPU TIME =        0.0 (    0.0 MIN)
 TOTAL WALL CLOCK TIME=        0.1 SECONDS, CPU UTILIZATION IS  10.00%

          ***************************************
          *       dDsC density dependent        *
          *        DISPERSION CORRECTION        *
          *    - Stephan Steinmann   and  -     *
          *    -   Clemence Corminboeuf   -     *
          ***************************************


 =======================================================================
 dDsC PERFORMS THE FOLLOWING CALCULATIONS:
 1. HF/DFT FOR ATOMS
 2. SUPERPOSITION OF ATOMIC DENSITIES
 3. Energy of the Molecule
 4. Classical Hirshfeld dominant analysis
 5. Dispersion correction
 =======================================================================

          -------------------------
          ATOM  1 WITH OWN BASIS
          -------------------------

     ------------------------------------------
     THE POINT GROUP IS C1 , NAXIS= 0, ORDER= 1
     ------------------------------------------

     DIMENSIONS OF THE SYMMETRY SUBSPACES ARE
 A   =    9
 ...... END OF ONE-ELECTRON INTEGRALS ......
 STEP CPU TIME =     0.00 TOTAL CPU TIME =        0.0 (    0.0 MIN)
 TOTAL WALL CLOCK TIME=        0.1 SECONDS, CPU UTILIZATION IS  10.00%

          -------------
          GUESS OPTIONS
          -------------
          GUESS =HUCKEL            NORB  =       0          NORDER=       0
          MIX   =       F          PRTMO =       F          PUNMO =       F
          TOLZ  = 1.0E-08          TOLE  = 1.0E-05
          SYMDEN=       F          PURIFY=       F

 INITIAL GUESS ORBITALS GENERATED BY HUCKEL   ROUTINE.
 HUCKEL GUESS REQUIRES      1489 WORDS.

 SYMMETRIES FOR INITIAL GUESS ORBITALS FOLLOW.  ALPHA SET(S).
     4 ORBITALS ARE OCCUPIED (    1 CORE ORBITALS).
     2=A        3=A        4=A        5=A        6=A        7=A        8=A   
     9=A   

 SYMMETRIES FOR INITIAL GUESS ORBITALS FOLLOW.   BETA SET(S).
     2 ORBITALS ARE OCCUPIED (    1 CORE ORBITALS).
     2=A        3=A        4=A        5=A        6=A        7=A        8=A   
     9=A   
 ...... END OF INITIAL ORBITAL SELECTION ......
 STEP CPU TIME =     0.00 TOTAL CPU TIME =        0.0 (    0.0 MIN)
 TOTAL WALL CLOCK TIME=        0.1 SECONDS, CPU UTILIZATION IS  10.00%

                    ----------------------
                    AO INTEGRAL TECHNOLOGY
                    ----------------------
     S,P,L SHELL ROTATED AXIS INTEGRALS, REPROGRAMMED BY
        KAZUYA ISHIMURA (IMS) AND JOSE SIERRA (SYNSTAR).
     S,P,D,L SHELL ROTATED AXIS INTEGRALS PROGRAMMED BY
        KAZUYA ISHIMURA (INSTITUTE FOR MOLECULAR SCIENCE).
     S,P,D,F,G SHELL TO TOTAL QUARTET ANGULAR MOMENTUM SUM 5,
        ERIC PROGRAM BY GRAHAM FLETCHER (ELORET AND NASA ADVANCED
        SUPERCOMPUTING DIVISION, AMES RESEARCH CENTER).
     S,P,D,F,G,L SHELL GENERAL RYS QUADRATURE PROGRAMMED BY
        MICHEL DUPUIS (PACIFIC NORTHWEST NATIONAL LABORATORY).
  ...... END OF TWO-ELECTRON INTEGRALS .....
 STEP CPU TIME =     0.01 TOTAL CPU TIME =        0.0 (    0.0 MIN)
 TOTAL WALL CLOCK TIME=        0.1 SECONDS, CPU UTILIZATION IS  18.18%
  ...... END OF TWO-ELECTRON INTEGRALS .....
 STEP CPU TIME =     0.00 TOTAL CPU TIME =        0.0 (    0.0 MIN)
 TOTAL WALL CLOCK TIME=        0.1 SECONDS, CPU UTILIZATION IS  18.18%

          ---------------------------
              U-WB97X SCF CALCULATION
          ---------------------------
         DENSITY MATRIX CONVERGENCE THRESHOLD=  2.00E-05
     COARSE -> FINE DFT GRID SWITCH THRESHOLD=  3.00E-04 (SWITCH IN $DFT)
                   HF -> DFT SWITCH THRESHOLD=  5.00E-03 (SWOFF IN $DFT)

 DIRECT SCF CALCULATION, SCHWRZ=T   FDIFF=T

     EXCHANGE FUNCTIONAL   =WB97X     
     CORRELATION FUNCTIONAL=WB97X     
     DFT THRESHOLD         =.379E-06
 FOR AN EULER-MACLAURIN QUADRATURE USING  24 RADIAL POINTS:
 SMALLEST GAUSSIAN PRIMITIVE EXPONENT=        0.1687144782 OF TYPE -P-
 ON ATOM NUMBER   1 HAS RADIAL NORMALIZATION=  0.999033
  LARGEST GAUSSIAN PRIMITIVE EXPONENT=     3047.5248800000 OF TYPE -S-
 ON ATOM NUMBER   1 HAS RADIAL NORMALIZATION=  0.996585

          **************************************************
          *                                                *
          * WARNING: QUESTIONABLE SELECTION OF RADIAL GRID *
          *                                                *
          **************************************************

 THIS RUN HAS REQUESTED NRAD=  24 IN $DFT OR $TDDFT
 ATOM=    1 HAS LARGE EXPONENT=          3047.524879999999939
 RECOMMEND NRAD ABOVE  50 FOR ZETA'S ABOVE 1E+4
 RECOMMEND NRAD ABOVE  75 FOR ZETA'S ABOVE 1E+5
 RECOMMEND NRAD ABOVE 125 FOR ZETA'S ABOVE 1E+6
 ATOM=    1 HAS SMALL EXPONENT=             0.168714478150400
 RECOMMEND NRAD ABOVE  75 FOR ZETA'S BELOW 1E-3
 RECOMMEND NRAD ABOVE 100 FOR ZETA'S BELOW 1E-4
 RECOMMEND NRAD ABOVE 125 FOR ZETA'S BELOW 1E-5
 DFT IS SWITCHED OFF, PERFORMING PURE SCF UNTIL SWOFF THRESHOLD IS REACHED.

                                                                                NONZERO     BLOCKS
 ITER EX      TOTAL ENERGY        E CHANGE  DENSITY CHANGE    DIIS ERROR      INTEGRALS    SKIPPED
   1  0      -37.6441520045   -37.6441520045   0.238956071   0.547002967            213          0
          * * *   INITIATING DIIS PROCEDURE   * * *
   2  1      -37.6777870129    -0.0336350084   0.009335336   0.012607298            213          0
   3  2      -37.6778282687    -0.0000412557   0.004688974   0.002616787            213          0
 CONVERGED TO SWOFF, SO DFT CALCULATION IS NOW SWITCHED ON.
          * * *   INITIATING DIIS PROCEDURE   * * *
   4  3      -37.8308679878    -0.1530397191   0.028280321   0.073214444            213          0
   5  4      -37.8313811035    -0.0005131157   0.009011693   0.005138078            213          0
   6  5      -37.8314077581    -0.0000266546   0.003801505   0.001618204            213          0
   7  6      -37.8314101649    -0.0000024067   0.000082910   0.000070791            213          0
   8  7      -37.8314101686    -0.0000000037   0.000026056   0.000012714            213          0
   9  8      -37.8314101687    -0.0000000001   0.000000422   0.000000211            213          0
  10  9      -37.8314101687    -0.0000000000   0.000000000   0.000000000            213          0

          -----------------
          DENSITY CONVERGED
          -----------------
     TIME TO FORM FOCK OPERATORS=       1.2 SECONDS (       0.1 SEC/ITER)
     FOCK TIME ON FIRST ITERATION=       0.0, LAST ITERATION=       0.2
     TIME TO SOLVE SCF EQUATIONS=       0.0 SECONDS (       0.0 SEC/ITER)

 FINAL U-WB97X ENERGY IS      -37.8314101687 AFTER  10 ITERATIONS
 DFT EXCHANGE + CORRELATION ENERGY =        -3.6426102414
 TOTAL ELECTRON NUMBER             =         6.0002039734

          --------------------
          SPIN SZ   =    1.000
          S-SQUARED =    2.003
          --------------------
 ...... END OF UHF CALCULATION ......
 STEP CPU TIME =     1.21 TOTAL CPU TIME =        1.2 (    0.0 MIN)
 TOTAL WALL CLOCK TIME=        1.3 SECONDS, CPU UTILIZATION IS  92.48%

          -------------------------
          ATOM  2 WITH OWN BASIS
          -------------------------

          -------------------------
          ATOM  3 WITH OWN BASIS
          -------------------------

          -------------------------
          ATOM  4 WITH OWN BASIS
          -------------------------

     ------------------------------------------
     THE POINT GROUP IS C1 , NAXIS= 0, ORDER= 1
     ------------------------------------------

     DIMENSIONS OF THE SYMMETRY SUBSPACES ARE
 A   =    2
 ...... END OF ONE-ELECTRON INTEGRALS ......
 STEP CPU TIME =     0.00 TOTAL CPU TIME =        1.2 (    0.0 MIN)
 TOTAL WALL CLOCK TIME=        1.4 SECONDS, CPU UTILIZATION IS  89.78%

          -------------
          GUESS OPTIONS
          -------------
          GUESS =HUCKEL            NORB  =       0          NORDER=       0
          MIX   =       F          PRTMO =       F          PUNMO =       F
          TOLZ  = 1.0E-08          TOLE  = 1.0E-05
          SYMDEN=       F          PURIFY=       F

 INITIAL GUESS ORBITALS GENERATED BY HUCKEL   ROUTINE.
 HUCKEL GUESS REQUIRES       689 WORDS.

 SYMMETRIES FOR INITIAL GUESS ORBITALS FOLLOW.  ALPHA SET(S).
     1 ORBITALS ARE OCCUPIED (    0 CORE ORBITALS).
     1=A        2=A   
 ...... END OF INITIAL ORBITAL SELECTION ......
 STEP CPU TIME =     0.00 TOTAL CPU TIME =        1.2 (    0.0 MIN)
 TOTAL WALL CLOCK TIME=        1.4 SECONDS, CPU UTILIZATION IS  89.78%
  ...... END OF TWO-ELECTRON INTEGRALS .....
 STEP CPU TIME =     0.00 TOTAL CPU TIME =        1.2 (    0.0 MIN)
 TOTAL WALL CLOCK TIME=        1.4 SECONDS, CPU UTILIZATION IS  89.78%
  ...... END OF TWO-ELECTRON INTEGRALS .....
 STEP CPU TIME =     0.00 TOTAL CPU TIME =        1.2 (    0.0 MIN)
 TOTAL WALL CLOCK TIME=        1.4 SECONDS, CPU UTILIZATION IS  89.78%

          ---------------------------
              U-WB97X SCF CALCULATION
          ---------------------------
         DENSITY MATRIX CONVERGENCE THRESHOLD=  2.00E-05
     COARSE -> FINE DFT GRID SWITCH THRESHOLD=  3.00E-04 (SWITCH IN $DFT)
                   HF -> DFT SWITCH THRESHOLD=  5.00E-03 (SWOFF IN $DFT)

 DIRECT SCF CALCULATION, SCHWRZ=T   FDIFF=T
 DFT IS SWITCHED OFF, PERFORMING PURE SCF UNTIL SWOFF THRESHOLD IS REACHED.

                                                                                NONZERO     BLOCKS
 ITER EX      TOTAL ENERGY        E CHANGE  DENSITY CHANGE    DIIS ERROR      INTEGRALS    SKIPPED
          * * *   INITIATING DIIS PROCEDURE   * * *
   1  0       -0.4641827651    -0.4641827651   0.178441695   0.177483467              6          0
   2  1       -0.4947088078    -0.0305260427   0.089352122   0.058032615              6          0
 REDUCING DIIS EQUATION SIZE BY 1 FOR NUMERICAL STABILITY
   3  2       -0.4982329092    -0.0035241014   0.000000000   0.000000000              6          0
 CONVERGED TO SWOFF, SO DFT CALCULATION IS NOW SWITCHED ON.
          * * *   INITIATING DIIS PROCEDURE   * * *
   4  3                 NaN              NaN   0.001201360           NaN              6          0
   5  4                 NaN              NaN   1.747941144           NaN              6          0
   6  5                 NaN              NaN   0.000000000           NaN              6          0
   7  6                 NaN              NaN   0.000000000           NaN              0          6

          -----------------
          DENSITY CONVERGED
          -----------------
     TIME TO FORM FOCK OPERATORS=       0.6 SECONDS (       0.1 SEC/ITER)
     FOCK TIME ON FIRST ITERATION=       0.0, LAST ITERATION=       0.2
     TIME TO SOLVE SCF EQUATIONS=       0.0 SECONDS (       0.0 SEC/ITER)

 FINAL U-WB97X ENERGY IS                 NaN AFTER   7 ITERATIONS
 DFT EXCHANGE + CORRELATION ENERGY =                  NaN
 TOTAL ELECTRON NUMBER             =         1.0000618016

          --------------------
          SPIN SZ   =    0.500
          S-SQUARED =    0.750
          --------------------
 ...... END OF UHF CALCULATION ......
 STEP CPU TIME =     0.65 TOTAL CPU TIME =        1.9 (    0.0 MIN)
 TOTAL WALL CLOCK TIME=        2.0 SECONDS, CPU UTILIZATION IS  92.61%

          -------------------------
          ATOM  5 WITH OWN BASIS
          -------------------------

          -------------------------
          ATOM  6 WITH OWN BASIS
          -------------------------

          -------------------------
          ATOM  7 WITH OWN BASIS
          -------------------------

          -------------------------
          ATOM  8 WITH OWN BASIS
          -------------------------

          -------------------------
          ATOM  9 WITH OWN BASIS
          -------------------------

          -------------------------
          ATOM 10 WITH OWN BASIS
          -------------------------

     ------------------------------------------
     THE POINT GROUP IS C1 , NAXIS= 0, ORDER= 1
     ------------------------------------------

     DIMENSIONS OF THE SYMMETRY SUBSPACES ARE
 A   =   41
 STEP CPU TIME =     0.00 TOTAL CPU TIME =        1.9 (    0.0 MIN)
 TOTAL WALL CLOCK TIME=        2.1 SECONDS, CPU UTILIZATION IS  90.82%

                       **********************
                       END OF SAD PREPARATION
                       **********************


          ********************
          1 ELECTRON INTEGRALS
          ********************
 ...... END OF ONE-ELECTRON INTEGRALS ......
 STEP CPU TIME =     0.00 TOTAL CPU TIME =        1.9 (    0.0 MIN)
 TOTAL WALL CLOCK TIME=        2.1 SECONDS, CPU UTILIZATION IS  90.82%

          -------------
          GUESS OPTIONS
          -------------
          GUESS =HUCKEL            NORB  =       0          NORDER=       0
          MIX   =       F          PRTMO =       F          PUNMO =       F
          TOLZ  = 1.0E-08          TOLE  = 1.0E-05
          SYMDEN=       F          PURIFY=       F

 INITIAL GUESS ORBITALS GENERATED BY HUCKEL   ROUTINE.
 HUCKEL GUESS REQUIRES     21119 WORDS.

 SYMMETRIES FOR INITIAL GUESS ORBITALS FOLLOW.  ALPHA SET(S).
    13 ORBITALS ARE OCCUPIED (    3 CORE ORBITALS).
     4=A        5=A        6=A        7=A        8=A        9=A       10=A   
    11=A       12=A       13=A       14=A       15=A       16=A       17=A   
    18=A       19=A       20=A       21=A       22=A       23=A   

 SYMMETRIES FOR INITIAL GUESS ORBITALS FOLLOW.   BETA SET(S).
    12 ORBITALS ARE OCCUPIED (    3 CORE ORBITALS).
     4=A        5=A        6=A        7=A        8=A        9=A       10=A   
    11=A       12=A       13=A       14=A       15=A       16=A       17=A   
    18=A       19=A       20=A       21=A       22=A   
 ...... END OF INITIAL ORBITAL SELECTION ......
 STEP CPU TIME =     0.00 TOTAL CPU TIME =        1.9 (    0.0 MIN)
 TOTAL WALL CLOCK TIME=        2.1 SECONDS, CPU UTILIZATION IS  90.38%

          --------------------------------
          2 ELECTRON LC EXCHANGE INTEGRALS
          --------------------------------

 DIRECT SCF METHOD SKIPS INTEGRAL STORAGE ON DISK.
 DIRECT TRANSFORMATION SKIPS AO INTEGRAL STORAGE ON DISK.
  ...... END OF TWO-ELECTRON INTEGRALS .....
 STEP CPU TIME =     0.00 TOTAL CPU TIME =        1.9 (    0.0 MIN)
 TOTAL WALL CLOCK TIME=        2.1 SECONDS, CPU UTILIZATION IS  90.38%

          --------------------
          2 ELECTRON INTEGRALS
          --------------------

 DIRECT SCF METHOD SKIPS INTEGRAL STORAGE ON DISK.
 DIRECT TRANSFORMATION SKIPS AO INTEGRAL STORAGE ON DISK.
  ...... END OF TWO-ELECTRON INTEGRALS .....
 STEP CPU TIME =     0.00 TOTAL CPU TIME =        1.9 (    0.0 MIN)
 TOTAL WALL CLOCK TIME=        2.1 SECONDS, CPU UTILIZATION IS  90.38%

          ---------------------------
             RO-WB97X SCF CALCULATION
          ---------------------------

     NUCLEAR ENERGY =        75.5033900625
     MAXIT =200     NPUNCH=  2     MULT=  2
     EXTRAP=T  DAMP=F  SHIFT=F  RSTRCT=F  DIIS=T  SOSCF=F
         DENSITY MATRIX CONVERGENCE THRESHOLD=  2.00E-05
     COARSE -> FINE DFT GRID SWITCH THRESHOLD=  3.00E-04 (SWITCH IN $DFT)
                   HF -> DFT SWITCH THRESHOLD=  5.00E-03 (SWOFF IN $DFT)
     ROHF CANONICALIZATION PARAMETERS
             C-C     O-O     V-V
     ALPHA -0.5000  0.5000  1.5000
     BETA   1.5000  0.5000 -0.5000
     MEMORY REQUIRED FOR UHF/ROHF ITERS=    157759 WORDS.

 DIRECT SCF CALCULATION, SCHWRZ=T   FDIFF=T
 SCHWARZ INEQUALITY OVERHEAD:       860 INTEGRALS, T=        0.00
 DFT IS SWITCHED OFF, PERFORMING PURE SCF UNTIL SWOFF THRESHOLD IS REACHED.

                                                                                NONZERO     BLOCKS
 ITER EX      TOTAL ENERGY        E CHANGE  DENSITY CHANGE    DIIS ERROR      INTEGRALS    SKIPPED
   1  0     -117.3691950453  -117.3691950453   0.198795580   0.608206548         328194       2040
          * * *   INITIATING DIIS PROCEDURE   * * *
   2  1     -117.5753267150    -0.2061316697   0.057198490   0.058263399         327639       2356
   3  2     -117.5857616483    -0.0104349334   0.016482835   0.028708278         326274       2891
   4  3     -117.5872695337    -0.0015078854   0.008165137   0.003638545         324291       3690
   5  4     -117.5873600913    -0.0000905576   0.001584190   0.000793581         322920       4068
 CONVERGED TO SWOFF, SO DFT CALCULATION IS NOW SWITCHED ON.
          * * *   INITIATING DIIS PROCEDURE   * * *
   6  5     -118.4064626770    -0.8191025857   0.042237183   0.076548488         326924       2059
   7  6     -118.4107494627    -0.0042867857   0.021164028   0.016319501         325058       3005
   8  7     -118.4114103535    -0.0006608909   0.006940267   0.008803417         323550       3523
   9  8     -118.4116164927    -0.0002061392   0.001197766   0.000502292         321869       4187
  10  9     -118.4116174617    -0.0000009690   0.000303023   0.000300055         317831       5301
  11 10     -118.4116177982    -0.0000003364   0.000039243   0.000011156         315185       6189
  12 11     -118.4116177996    -0.0000000015   0.000016797   0.000002774         304601       8550
  13 12     -118.4116177996     0.0000000000   0.000001728   0.000000470         296658      10194

          -----------------
          DENSITY CONVERGED
          -----------------
     TIME TO FORM FOCK OPERATORS=      14.7 SECONDS (       1.1 SEC/ITER)
     FOCK TIME ON FIRST ITERATION=       0.1, LAST ITERATION=       1.7
     TIME TO SOLVE SCF EQUATIONS=       0.0 SECONDS (       0.0 SEC/ITER)

 FINAL RO-WB97X ENERGY IS     -118.4116177996 AFTER  13 ITERATIONS
 DFT EXCHANGE + CORRELATION ENERGY =       -12.7271753428
 TOTAL ELECTRON NUMBER             =        24.9959152003

          --------------------
          SPIN SZ   =    0.500
          S-SQUARED =    0.750
          --------------------

          ------------
          EIGENVECTORS
          ------------

                      1          2          3          4          5
                  -10.2502   -10.2486   -10.2486    -0.8857    -0.8126
                     A          A          A          A          A   
    1  C  1  S    0.992112  -0.000436  -0.083078  -0.124214  -0.000000
    2  C  1  S    0.033355  -0.000023  -0.004433   0.238532   0.000002
    3  C  1  X   -0.000554   0.000000   0.000034  -0.013911  -0.000000
    4  C  1  Y   -0.000173   0.000002   0.000466  -0.062268  -0.000000
    5  C  1  Z    0.000000   0.000715  -0.000004  -0.000001   0.154220
    6  C  1  S   -0.027205   0.000067   0.013008   0.156228  -0.000004
    7  C  1  X    0.000825  -0.000000  -0.000031  -0.005942   0.000001
    8  C  1  Y    0.002646  -0.000015  -0.002958  -0.004766   0.000002
    9  C  1  Z   -0.000000  -0.006396   0.000033   0.000006   0.019393
   10  C  2  S    0.058704  -0.700351   0.704986  -0.123546  -0.141850
   11  C  2  S    0.000859  -0.025931   0.025159   0.232331   0.269375
   12  C  2  X   -0.000091   0.000055   0.000015  -0.001835   0.000478
   13  C  2  Y   -0.000538   0.000160   0.000016   0.012563   0.002964
   14  C  2  Z    0.000720   0.000162   0.000192  -0.040209   0.021647
   15  C  2  S    0.005135   0.024453  -0.022601   0.209432   0.272132
   16  C  2  X    0.000237  -0.000230  -0.000124  -0.001949  -0.002302
   17  C  2  Y    0.001930   0.000253  -0.000862  -0.000992   0.000041
   18  C  2  Z   -0.003743  -0.001871   0.000759  -0.007087   0.007304
   19  C  3  S    0.058721   0.707511   0.697799  -0.123547   0.141849
   20  C  3  S    0.000860   0.026187   0.024893   0.232331  -0.269374
   21  C  3  X   -0.000091  -0.000055   0.000015  -0.001835  -0.000478
   22  C  3  Y   -0.000538  -0.000160   0.000018   0.012563  -0.002964
   23  C  3  Z   -0.000720   0.000160  -0.000194   0.040209   0.021647
   24  C  3  S    0.005134  -0.024683  -0.022350   0.209441  -0.272128
   25  C  3  X    0.000237   0.000228  -0.000127  -0.001949   0.002300
   26  C  3  Y    0.001930  -0.000262  -0.000859  -0.000987  -0.000039
   27  C  3  Z    0.003743  -0.001879  -0.000740   0.007089   0.007307
   28  H  4  S   -0.001002  -0.000002  -0.000306   0.057352   0.000000
   29  H  4  S    0.004343  -0.000001  -0.000094   0.010487  -0.000000
   30  H  5  S   -0.000173   0.000243  -0.000280   0.067752   0.102878
   31  H  5  S    0.000487  -0.003314   0.004387   0.016431   0.033177
   32  H  6  S   -0.000173  -0.000245  -0.000278   0.067752  -0.102877
   33  H  6  S    0.000487   0.003359   0.004353   0.016430  -0.033177
   34  H  7  S   -0.000346   0.000136  -0.000320   0.071277   0.094661
   35  H  7  S    0.001294  -0.004366   0.003590   0.015765   0.025762
   36  H  8  S   -0.000275   0.000146  -0.000340   0.072326   0.093705
   37  H  8  S    0.000618  -0.004367   0.003673   0.018992   0.026688
   38  H  9  S   -0.000275  -0.000149  -0.000338   0.072327  -0.093705
   39  H  9  S    0.000618   0.004404   0.003628   0.018993  -0.026685
   40  H 10  S   -0.000346  -0.000139  -0.000318   0.071278  -0.094661
   41  H 10  S    0.001294   0.004403   0.003545   0.015765  -0.025762

                      6          7          8          9         10
                   -0.6526    -0.5535    -0.5108    -0.5045    -0.4782
                     A          A          A          A          A   
    1  C  1  S   -0.148684   0.029854  -0.012164   0.000000  -0.000000
    2  C  1  S    0.292815  -0.061615   0.027040   0.000000   0.000000
    3  C  1  X   -0.060013  -0.050497   0.116972   0.000001   0.000001
    4  C  1  Y    0.118004   0.253310   0.028291   0.000002   0.000000
    5  C  1  Z   -0.000000   0.000000  -0.000001   0.239961   0.001229
    6  C  1  S    0.311225  -0.063910   0.011276  -0.000001  -0.000001
    7  C  1  X   -0.025544  -0.019379   0.046584  -0.000000  -0.000000
    8  C  1  Y    0.035892   0.092161   0.009019   0.000002   0.000001
    9  C  1  Z    0.000002  -0.000011  -0.000002   0.101327   0.005156
   10  C  2  S    0.056102  -0.011271   0.000783   0.002375   0.000008
   11  C  2  S   -0.108265   0.020197  -0.002186  -0.000082   0.001714
   12  C  2  X   -0.023767  -0.048191   0.296393  -0.012103   0.322910
   13  C  2  Y    0.118890   0.130546   0.062311   0.317131   0.009291
   14  C  2  Z   -0.128839   0.247670   0.025560  -0.023669   0.004812
   15  C  2  S   -0.139603   0.039472   0.002974  -0.030023  -0.005382
   16  C  2  X   -0.007152  -0.020539   0.138088  -0.010336   0.164932
   17  C  2  Y    0.042163   0.067133   0.032997   0.147388   0.000465
   18  C  2  Z   -0.037979   0.109614   0.012929  -0.004757   0.005067
   19  C  3  S    0.056101  -0.011270   0.000784  -0.002375  -0.000008
   20  C  3  S   -0.108267   0.020201  -0.002186   0.000081  -0.001715
   21  C  3  X   -0.023767  -0.048192   0.296396   0.012107  -0.322907
   22  C  3  Y    0.118890   0.130548   0.062316  -0.317129  -0.009290
   23  C  3  Z    0.128839  -0.247672  -0.025560  -0.023671   0.004812
   24  C  3  S   -0.139591   0.039448   0.002969   0.030031   0.005389
   25  C  3  X   -0.007152  -0.020540   0.138089   0.010339  -0.164931
   26  C  3  Y    0.042162   0.067126   0.033000  -0.147389  -0.000467
   27  C  3  Z    0.037981  -0.109621  -0.012931  -0.004758   0.005067
   28  H  4  S    0.192464   0.113312   0.010426   0.000001   0.000000
   29  H  4  S    0.097764   0.087863   0.013154   0.000001  -0.000001
   30  H  5  S   -0.063179   0.166765   0.072847   0.111218   0.048833
   31  H  5  S   -0.030398   0.115180   0.056252   0.091281   0.040558
   32  H  6  S   -0.063180   0.166768   0.072850  -0.111216  -0.048833
   33  H  6  S   -0.030399   0.115185   0.056254  -0.091280  -0.040558
   34  H  7  S   -0.072265   0.026705  -0.185675  -0.085928  -0.193756
   35  H  7  S   -0.036096   0.017888  -0.154782  -0.065422  -0.155665
   36  H  8  S   -0.099077  -0.068909   0.104452  -0.152902   0.144378
   37  H  8  S   -0.053939  -0.054413   0.089966  -0.112112   0.112721
   38  H  9  S   -0.099077  -0.068910   0.104451   0.152903  -0.144378
   39  H  9  S   -0.053943  -0.054412   0.089968   0.112109  -0.112723
   40  H 10  S   -0.072266   0.026705  -0.185678   0.085925   0.193754
   41  H 10  S   -0.036100   0.017888  -0.154784   0.065419   0.155661

                     11         12         13         14         15
                   -0.4444    -0.4357    -0.1005     0.2021     0.2255
                     A          A          A          A          A   
    1  C  1  S   -0.000001   0.007970  -0.026514  -0.041602   0.067659
    2  C  1  S   -0.000004  -0.022759   0.054019   0.096358  -0.056844
    3  C  1  X   -0.000000  -0.066690   0.580961  -0.029004   0.069503
    4  C  1  Y    0.000001   0.330496   0.124224   0.095117  -0.167540
    5  C  1  Z   -0.334728  -0.000000  -0.000000  -0.000003   0.000003
    6  C  1  S    0.000027  -0.005020   0.121410   0.623482  -1.155798
    7  C  1  X    0.000001  -0.032937   0.523908  -0.134395   0.226243
    8  C  1  Y   -0.000015   0.153577   0.133637   0.243092  -0.256938
    9  C  1  Z   -0.118253  -0.000004  -0.000002   0.000044   0.000101
   10  C  2  S    0.019574   0.015708   0.006421  -0.086664  -0.036892
   11  C  2  S   -0.042042  -0.034555  -0.015492   0.103335   0.025496
   12  C  2  X   -0.007016   0.039899  -0.054933   0.002440   0.026647
   13  C  2  Y    0.021122  -0.251596  -0.024248  -0.060381  -0.176094
   14  C  2  Z    0.337765   0.057022   0.017665   0.109824  -0.076116
   15  C  2  S   -0.066310  -0.051590  -0.013068   1.395167   0.680683
   16  C  2  X   -0.001110   0.020470  -0.029817   0.066138  -0.006612
   17  C  2  Y    0.010708  -0.132065  -0.021127  -0.213324  -0.522225
   18  C  2  Z    0.171548   0.015799  -0.001778   0.481565  -0.313078
   19  C  3  S   -0.019574   0.015709   0.006421  -0.086668  -0.036906
   20  C  3  S    0.042050  -0.034552  -0.015491   0.103336   0.025498
   21  C  3  X    0.007017   0.039899  -0.054933   0.002439   0.026646
   22  C  3  Y   -0.021122  -0.251596  -0.024248  -0.060378  -0.176093
   23  C  3  Z    0.337764  -0.057022  -0.017664  -0.109825   0.076109
   24  C  3  S    0.066265  -0.051603  -0.013072   1.395263   0.680983
   25  C  3  X    0.001108   0.020471  -0.029813   0.066112  -0.006614
   26  C  3  Y   -0.010709  -0.132064  -0.021127  -0.213278  -0.522156
   27  C  3  Z    0.171530  -0.015801   0.001776  -0.481569   0.313095
   28  H  4  S    0.000000   0.237720  -0.024214   0.005352   0.106503
   29  H  4  S    0.000004   0.209844  -0.045220  -0.601972   1.167673
   30  H  5  S    0.177578  -0.096151  -0.039912  -0.053344   0.054781
   31  H  5  S    0.161146  -0.077046  -0.049211  -0.872384   0.549329
   32  H  6  S   -0.177576  -0.096150  -0.039912  -0.053349   0.054781
   33  H  6  S   -0.161141  -0.077046  -0.049212  -0.872430   0.549215
   34  H  7  S    0.015015   0.043686   0.110021  -0.001018  -0.022667
   35  H  7  S    0.019366   0.046046   0.187150  -0.669082  -0.456526
   36  H  8  S   -0.039670   0.143312  -0.065161   0.008149  -0.051678
   37  H  8  S   -0.029267   0.144099  -0.107805  -0.675456  -0.871975
   38  H  9  S    0.039672   0.143312  -0.065161   0.008148  -0.051684
   39  H  9  S    0.029276   0.144102  -0.107807  -0.675430  -0.872028
   40  H 10  S   -0.015014   0.043686   0.110022  -0.001023  -0.022672
   41  H 10  S   -0.019362   0.046050   0.187154  -0.669118  -0.456596

                     16         17         18         19         20
                    0.2463     0.2679     0.2779     0.2816     0.2915
                     A          A          A          A          A   
    1  C  1  S    0.000007  -0.075810  -0.107302   0.000004  -0.000010
    2  C  1  S    0.000004   0.063873   0.161284  -0.000004   0.000031
    3  C  1  X    0.000010  -0.118543  -0.005258  -0.000004  -0.000013
    4  C  1  Y   -0.000013  -0.017260   0.056301   0.000006   0.000023
    5  C  1  Z   -0.078077   0.000002   0.000015   0.015080  -0.097406
    6  C  1  S   -0.000139   1.429385   1.776656  -0.000077   0.000084
    7  C  1  X    0.000050  -0.522358   0.067740  -0.000007  -0.000043
    8  C  1  Y   -0.000015  -0.011849   0.316473   0.000033   0.000220
    9  C  1  Z   -0.628467  -0.000047   0.000028   0.281239  -0.194535
   10  C  2  S   -0.110063   0.041167   0.048195   0.014732  -0.011019
   11  C  2  S    0.102241  -0.039916  -0.063930  -0.006947   0.029217
   12  C  2  X   -0.036373   0.251080  -0.167788  -0.266519   0.014741
   13  C  2  Y   -0.042230  -0.092788  -0.158398  -0.043093  -0.208264
   14  C  2  Z    0.102292   0.021065   0.014480  -0.027402  -0.221823
   15  C  2  S    2.015161  -0.657959  -0.626683  -0.370450   0.031767
   16  C  2  X   -0.110861   0.905824  -0.519943  -0.980316   0.118216
   17  C  2  Y   -0.066897  -0.417419  -0.741831  -0.162931  -0.693816
   18  C  2  Z    0.109548   0.186875   0.075983  -0.002116  -0.740289
   19  C  3  S    0.110052   0.041180   0.048191  -0.014737   0.011028
   20  C  3  S   -0.102226  -0.039938  -0.063927   0.006951  -0.029259
   21  C  3  X    0.036348   0.251088  -0.167772   0.266527  -0.014750
   22  C  3  Y    0.042218  -0.092800  -0.158440   0.043106   0.208229
   23  C  3  Z    0.102301  -0.021034  -0.014438  -0.027402  -0.221814
   24  C  3  S   -2.014985  -0.658197  -0.626641   0.370544  -0.031740
   25  C  3  X    0.110731   0.905857  -0.519860   0.980347  -0.118208
   26  C  3  Y    0.066888  -0.417508  -0.741979   0.162979   0.693613
   27  C  3  Z    0.109574  -0.186792  -0.075807  -0.002066  -0.740077
   28  H  4  S    0.000005   0.000055  -0.035567   0.000000  -0.000006
   29  H  4  S    0.000101  -0.644049  -1.090587  -0.000007  -0.000273
   30  H  5  S    0.022060   0.015626   0.051519   0.013523   0.074501
   31  H  5  S   -0.723661   0.240133   0.942938   0.508184   1.316298
   32  H  6  S   -0.022061   0.015632   0.051540  -0.013523  -0.074477
   33  H  6  S    0.723665   0.240356   0.943196  -0.508240  -1.315988
   34  H  7  S   -0.042745   0.010182  -0.053504  -0.098491   0.009879
   35  H  7  S   -0.953464   0.997671  -0.769527  -1.149117  -0.167780
   36  H  8  S   -0.036165  -0.040069  -0.026997   0.085151  -0.054265
   37  H  8  S   -0.746052  -0.894581   0.126867   0.928392  -0.856079
   38  H  9  S    0.036163  -0.040070  -0.027016  -0.085148   0.054253
   39  H  9  S    0.746064  -0.894602   0.126623  -0.928403   0.855972
   40  H 10  S    0.042736   0.010189  -0.053497   0.098496  -0.009894
   41  H 10  S    0.953267   0.997768  -0.769503   1.149155   0.167742

                     21         22         23         24         25
                    0.3496     0.3894     0.6276     0.6494     0.6661
                     A          A          A          A          A   
    1  C  1  S    0.081541  -0.000014   0.020530   0.000001  -0.011953
    2  C  1  S   -0.050662   0.000014  -0.111972  -0.000001   0.084597
    3  C  1  X   -0.090130   0.000016  -0.127866  -0.000021   0.868264
    4  C  1  Y    0.375719  -0.000068   0.023051  -0.000009   0.207502
    5  C  1  Z    0.000051   0.418597   0.000038  -0.458502  -0.000005
    6  C  1  S   -1.928723   0.000300   0.500386   0.000012   0.052775
    7  C  1  X   -0.289430   0.000034   0.028093   0.000010  -0.720968
    8  C  1  Y    2.145071  -0.000311  -0.312829   0.000001  -0.247929
    9  C  1  Z    0.000473   2.382715  -0.000064   0.929009   0.000008
   10  C  2  S   -0.050241   0.037140  -0.007536  -0.000074  -0.001233
   11  C  2  S   -0.006473   0.002201   0.141942  -0.065086   0.019240
   12  C  2  X    0.035567   0.032542  -0.069753   0.103700   0.254809
   13  C  2  Y    0.031626  -0.161609  -0.274135  -0.417200  -0.071281
   14  C  2  Z   -0.112489   0.135020  -0.506199   0.345104  -0.070587
   15  C  2  S    1.314290  -1.133936  -0.399806  -0.431776  -0.115731
   16  C  2  X    0.166782   0.099262   0.137720  -0.151782  -0.491875
   17  C  2  Y   -0.046901  -1.276034   0.591928   0.513905   0.155167
   18  C  2  Z   -1.504386   1.081962   0.701215  -0.396367   0.120558
   19  C  3  S   -0.050253  -0.037122  -0.007537   0.000075  -0.001234
   20  C  3  S   -0.006478  -0.002236   0.141947   0.065063   0.019249
   21  C  3  X    0.035550  -0.032554  -0.069747  -0.103721   0.254815
   22  C  3  Y    0.031630   0.161618  -0.274148   0.417188  -0.071255
   23  C  3  Z    0.112580   0.134973   0.506167   0.345148   0.070599
   24  C  3  S    1.314707   1.133568  -0.399874   0.431806  -0.115731
   25  C  3  X    0.166734  -0.099293   0.137712   0.151826  -0.491885
   26  C  3  Y   -0.046497   1.276043   0.591944  -0.513870   0.155126
   27  C  3  Z    1.504840   1.081492  -0.701165  -0.396435  -0.120570
   28  H  4  S   -0.007312  -0.000002  -0.143223  -0.000006  -0.113730
   29  H  4  S   -1.557769   0.000227   0.079859   0.000004   0.016820
   30  H  5  S    0.054829  -0.075381  -0.331670  -0.098345  -0.001411
   31  H  5  S    0.561734   0.085566  -0.000898   0.043560   0.037751
   32  H  6  S    0.054853   0.075365  -0.331672   0.098311  -0.001401
   33  H  6  S    0.561891  -0.085770  -0.000891  -0.043575   0.037754
   34  H  7  S    0.013956  -0.037758   0.155807   0.094488  -0.196008
   35  H  7  S    0.062123  -0.313611   0.099496   0.026576  -0.150719
   36  H  8  S    0.029139  -0.061272   0.195889   0.212910   0.211363
   37  H  8  S   -0.415790  -0.710828   0.092773   0.039932   0.159269
   38  H  9  S    0.029154   0.061254   0.195908  -0.212904   0.211354
   39  H  9  S   -0.415605   0.710968   0.092777  -0.039939   0.159268
   40  H 10  S    0.013964   0.037747   0.155820  -0.094467  -0.196015
   41  H 10  S    0.062192   0.313619   0.099499  -0.026568  -0.150723

                     26         27         28         29         30
                    0.7074     0.7179     0.7607     0.8565     0.8859
                     A          A          A          A          A   
    1  C  1  S   -0.067195  -0.000001  -0.004591  -0.000001  -0.002546
    2  C  1  S   -0.160159   0.000002   0.012446  -0.000001  -0.132793
    3  C  1  X   -0.079258  -0.000002  -0.423628   0.000069   0.420027
    4  C  1  Y   -0.078466  -0.000009  -0.457271  -0.000104  -0.744956
    5  C  1  Z    0.000003  -0.047598  -0.000022  -1.013363   0.000036
    6  C  1  S   -0.277355  -0.000018  -0.078715  -0.000035   0.062705
    7  C  1  X    0.035772  -0.000009   0.991398  -0.000215  -1.378683
    8  C  1  Y   -0.250187   0.000020   1.375426   0.000349   2.621943
    9  C  1  Z   -0.000000   0.220668   0.000054   2.175206   0.000412
   10  C  2  S    0.025084   0.002149  -0.000619  -0.044925   0.002083
   11  C  2  S   -0.190184  -0.028686  -0.090228   0.171742  -0.129580
   12  C  2  X   -0.023644  -0.586668   0.417727  -0.014801  -0.410763
   13  C  2  Y   -0.560612   0.003785   0.125087   0.247824   0.210869
   14  C  2  Z    0.499218   0.154468   0.036226  -0.404431   0.139268
   15  C  2  S   -0.098150  -0.127619   0.625166  -0.710185   0.959063
   16  C  2  X    0.024554   1.181439  -1.211003   0.079880   1.210346
   17  C  2  Y    0.909216  -0.069998  -0.388254  -0.773173  -0.690664
   18  C  2  Z   -0.418866  -0.230074  -0.231037   1.034423  -0.768502
   19  C  3  S    0.025084  -0.002148  -0.000619   0.044926   0.002058
   20  C  3  S   -0.190186   0.028657  -0.090201  -0.171843  -0.129645
   21  C  3  X   -0.023660   0.586654   0.417726   0.014674  -0.410851
   22  C  3  Y   -0.560606  -0.003798   0.125049  -0.247777   0.210489
   23  C  3  Z   -0.499214   0.154459  -0.036222  -0.404457  -0.138776
   24  C  3  S   -0.098145   0.127675   0.625168   0.710574   0.959979
   25  C  3  X    0.024584  -1.181406  -1.211000  -0.079496   1.210585
   26  C  3  Y    0.909211   0.070016  -0.388168   0.773020  -0.689409
   27  C  3  Z    0.418866  -0.230059   0.231027   1.034599   0.767432
   28  H  4  S   -0.279911  -0.000005  -0.366325  -0.000040  -0.290823
   29  H  4  S    0.167684  -0.000006  -0.345338  -0.000184  -1.443956
   30  H  5  S   -0.010589  -0.065397  -0.082271  -0.196173  -0.163363
   31  H  5  S   -0.130203   0.048319   0.202873  -0.212360   0.383385
   32  H  6  S   -0.010591   0.065391  -0.082275   0.196120  -0.163665
   33  H  6  S   -0.130203  -0.048328   0.202852   0.212411   0.382478
   34  H  7  S    0.056895   0.331864  -0.255252  -0.107368  -0.006347
   35  H  7  S    0.184249   0.225853  -0.448621  -0.196016   0.365311
   36  H  8  S    0.121058  -0.223302   0.177889  -0.146853   0.075425
   37  H  8  S    0.205481  -0.175547   0.082695  -0.268355  -0.814717
   38  H  9  S    0.121054   0.223299   0.177886   0.146863   0.075337
   39  H  9  S    0.205475   0.175536   0.082729   0.268120  -0.814452
   40  H 10  S    0.056904  -0.331860  -0.255255   0.107381  -0.006394
   41  H 10  S    0.184253  -0.225845  -0.448596   0.196111   0.365467

                     31         32         33         34         35
                    0.9037     0.9585     1.0451     1.0541     1.0582
                     A          A          A          A          A   
    1  C  1  S    0.000001   0.004603   0.005750  -0.029662   0.000004
    2  C  1  S    0.000146  -1.229781  -0.478633   0.578050  -0.000119
    3  C  1  X   -0.000157  -0.064179   0.191832  -0.110525   0.000015
    4  C  1  Y    0.000289   0.466365  -0.193719   0.611591  -0.000093
    5  C  1  Z   -0.260494  -0.000016   0.000000  -0.000012  -0.097099
    6  C  1  S   -0.000244   2.477220   0.892837  -1.176006   0.000209
    7  C  1  X    0.000544  -0.024106  -0.498100   0.088880  -0.000007
    8  C  1  Y   -0.001059  -0.820263   0.773781  -1.028962   0.000162
    9  C  1  Z    1.796063   0.000104   0.000004   0.000098   0.569428
   10  C  2  S    0.015249  -0.050152  -0.024814   0.005020  -0.003347
   11  C  2  S    0.148836  -0.003609   0.082304  -0.273492   0.142218
   12  C  2  X    0.096548  -0.197896   0.463494   0.036558  -0.430365
   13  C  2  Y    0.538053  -0.005875  -0.048760   0.384177  -0.262445
   14  C  2  Z    0.469747  -0.012116   0.082419   0.171015  -0.007140
   15  C  2  S   -1.400539  -0.285373   0.021352   0.474400  -0.631263
   16  C  2  X   -0.241831   0.265856  -0.349742   0.105197   0.594886
   17  C  2  Y   -1.812629  -0.308968  -0.143727  -0.426789   0.053019
   18  C  2  Z   -0.947679   0.633091  -0.126118  -0.076175   0.022795
   19  C  3  S   -0.015247  -0.050153  -0.024815   0.005019   0.003347
   20  C  3  S   -0.148861  -0.003664   0.082319  -0.273553  -0.142263
   21  C  3  X   -0.096209  -0.197902   0.463503   0.036688   0.430363
   22  C  3  Y   -0.538255  -0.005923  -0.048763   0.384266   0.262323
   23  C  3  Z    0.469899   0.012155  -0.082421  -0.171022  -0.007053
   24  C  3  S    1.400059  -0.285149   0.021332   0.474647   0.631361
   25  C  3  X    0.240863   0.265875  -0.349755   0.105018  -0.594945
   26  C  3  Y    1.813294  -0.308792  -0.143717  -0.426803  -0.052890
   27  C  3  Z   -0.948320  -0.633170   0.126120   0.076188   0.022713
   28  H  4  S    0.000138  -0.403840   0.010905  -0.709707   0.000110
   29  H  4  S    0.000616   0.224641  -0.860366   1.537257  -0.000247
   30  H  5  S    0.271869  -0.209247  -0.326979  -0.407776   0.502214
   31  H  5  S    1.074667  -0.152737   0.378124   0.503812  -0.557402
   32  H  6  S   -0.271703  -0.209272  -0.326992  -0.407959  -0.502042
   33  H  6  S   -1.075100  -0.152853   0.378135   0.503998   0.557132
   34  H  7  S    0.029857  -0.536020   0.412670   0.325378  -0.732633
   35  H  7  S   -0.263326   0.265066  -0.731592  -0.473822   1.172355
   36  H  8  S    0.047849  -0.226269  -0.667171   0.178453   0.015197
   37  H  8  S   -0.431047  -0.265452   0.659490  -0.572022  -0.189464
   38  H  9  S   -0.047921  -0.226274  -0.667189   0.178455  -0.015243
   39  H  9  S    0.431731  -0.265423   0.659521  -0.571987   0.189600
   40  H 10  S   -0.029806  -0.536021   0.412673   0.325599   0.732550
   41  H 10  S    0.262986   0.265074  -0.731599  -0.474187  -1.172291

                     36         37         38         39         40
                    1.0826     1.0978     1.1092     1.1510     1.4160
                     A          A          A          A          A   
    1  C  1  S    0.000000  -0.014037  -0.000001   0.012857  -0.072301
    2  C  1  S    0.000043  -0.813612  -0.000089  -0.899915  -1.379201
    3  C  1  X   -0.000003   0.039212   0.000005   0.026702  -0.002963
    4  C  1  Y    0.000001   0.047579  -0.000010  -0.074270   0.087509
    5  C  1  Z    0.146785   0.000029   0.129802  -0.000007  -0.000026
    6  C  1  S   -0.000047   1.250967   0.000208   1.659843   5.410826
    7  C  1  X    0.000007  -0.192511  -0.000009   0.312735  -0.059396
    8  C  1  Y   -0.000018   0.191046   0.000006  -0.947231  -1.266902
    9  C  1  Z   -0.744098  -0.000125  -0.451237   0.000060   0.000302
   10  C  2  S   -0.018477   0.021730  -0.039490   0.003714   0.079759
   11  C  2  S    0.253214  -1.096345   0.863561  -0.334116   1.276359
   12  C  2  X   -0.305554   0.068988   0.187269   0.047572   0.048772
   13  C  2  Y    0.268430   0.021449  -0.168335   0.220316   0.153585
   14  C  2  Z    0.192425  -0.306701   0.301295   0.214028   0.057941
   15  C  2  S   -0.004493   1.994225  -1.535962  -0.053437  -4.392280
   16  C  2  X    0.431661  -0.010951  -0.298751  -0.374797  -0.103692
   17  C  2  Y   -0.026581  -0.236004   0.318566  -0.065670  -0.655120
   18  C  2  Z   -0.297166   0.555191  -0.604374   0.304322   0.719346
   19  C  3  S    0.018475   0.021726   0.039495   0.003710   0.079742
   20  C  3  S   -0.253067  -1.096322  -0.863617  -0.334122   1.276094
   21  C  3  X    0.305543   0.069002  -0.187245   0.047576   0.048788
   22  C  3  Y   -0.268417   0.021407   0.168362   0.220295   0.153563
   23  C  3  Z    0.192381   0.306668   0.301306  -0.214040  -0.057980
   24  C  3  S    0.004203   1.994029   1.535984  -0.053363  -4.391416
   25  C  3  X   -0.431646  -0.010977   0.298707  -0.374804  -0.103731
   26  C  3  Y    0.026583  -0.236096  -0.318641  -0.065598  -0.654927
   27  C  3  Z   -0.297094  -0.555120  -0.604440  -0.304292  -0.719183
   28  H  4  S    0.000003  -0.221931   0.000002   0.905061  -0.334117
   29  H  4  S    0.000024  -0.263594  -0.000053  -0.571235  -0.043374
   30  H  5  S   -0.633190   0.449729  -0.334305  -0.442117   0.326500
   31  H  5  S    0.753724  -0.995116   0.750874   0.362426   0.675201
   32  H  6  S    0.633132   0.449822   0.334332  -0.442147   0.326391
   33  H  6  S   -0.753577  -0.995133  -0.750897   0.362422   0.675149
   34  H  7  S   -0.331006   0.299525  -0.229437   0.082381   0.426918
   35  H  7  S    0.610981  -0.791573   0.401329  -0.421673   0.158550
   36  H  8  S    0.566200   0.036596  -0.640121   0.430268   0.367260
   37  H  8  S   -0.839728  -0.463806   1.182767  -0.361725   0.320097
   38  H  9  S   -0.566187   0.036460   0.640154   0.430229   0.367173
   39  H  9  S    0.839762  -0.463671  -1.182806  -0.361669   0.320098
   40  H 10  S    0.330988   0.299462   0.229498   0.082351   0.426839
   41  H 10  S   -0.610889  -0.791528  -0.401445  -0.421646   0.158478

                     41
                    1.4762
                     A   
    1  C  1  S    0.000007
    2  C  1  S    0.000156
    3  C  1  X   -0.000002
    4  C  1  Y   -0.000017
    5  C  1  Z    0.027871
    6  C  1  S   -0.000548
    7  C  1  X    0.000012
    8  C  1  Y    0.000143
    9  C  1  Z    1.838192
   10  C  2  S    0.084276
   11  C  2  S    1.614379
   12  C  2  X   -0.041007
   13  C  2  Y   -0.047159
   14  C  2  Z   -0.235539
   15  C  2  S   -4.407251
   16  C  2  X    0.130494
   17  C  2  Y   -0.090598
   18  C  2  Z    0.895027
   19  C  3  S   -0.084290
   20  C  3  S   -1.614564
   21  C  3  X    0.041002
   22  C  3  Y    0.047121
   23  C  3  Z   -0.235529
   24  C  3  S    4.407986
   25  C  3  X   -0.130490
   26  C  3  Y    0.090743
   27  C  3  Z    0.895189
   28  H  4  S    0.000027
   29  H  4  S    0.000005
   30  H  5  S    0.351698
   31  H  5  S    0.163442
   32  H  6  S   -0.351752
   33  H  6  S   -0.163551
   34  H  7  S    0.387492
   35  H  7  S    0.631957
   36  H  8  S    0.390930
   37  H  8  S    0.567042
   38  H  9  S   -0.391004
   39  H  9  S   -0.567051
   40  H 10  S   -0.387579
   41  H 10  S   -0.631952
 ...... END OF ROHF CALCULATION ......
 STEP CPU TIME =    14.77 TOTAL CPU TIME =       16.6 (    0.3 MIN)
 TOTAL WALL CLOCK TIME=       17.2 SECONDS, CPU UTILIZATION IS  96.86%
DAMPING PARAMETER ATT0:    13.30 AND BTT0     1.53
 Atom Pop(HCD) VOL(HCD) VOL_Free(HCD)
  1   3.60752  13.10935  22.12508
  2   3.61811  16.20418  23.60895
  3   3.61811  16.20417  23.60895
  4   0.31756   0.56019   5.99057
  5   0.30100   0.42169   6.50662
  6   0.30100   0.42168   6.50662
  7   0.31407   0.46779   6.16412
  8   0.30319   0.43970   5.98270
  9   0.30291   0.43970   5.91707
 10   0.31433   0.46779   6.22727
 Accuracy check: SUM of electrons   12.9977977334104     
 Hirshfeld overlap populations
   A   B   OVL(A,B)
   1   1   2.72762
   1   2   0.21067
   1   3   0.21067
   1   4   0.15781
   1   5   0.01954
   1   6   0.01954
   1   7   0.01778
   1   8   0.01819
   1   9   0.01819
   1  10   0.01778
   2   2   2.67688
   2   3   0.00974
   2   4   0.01549
   2   5   0.14261
   2   6   0.00018
   2   7   0.14343
   2   8   0.14204
   2   9   0.00449
   2  10   0.00207
   3   3   2.67688
   3   4   0.01549
   3   5   0.00018
   3   6   0.14261
   3   7   0.00207
   3   8   0.00449
   3   9   0.14204
   3  10   0.14343
   4   4   0.21955
   4   5   0.00545
   4   6   0.00545
   4   7   0.00234
   4   8   0.00060
   4   9   0.00060
   4  10   0.00234
   5   5   0.20229
   5   6   0.00001
   5   7   0.01724
   5   8   0.01710
   5   9   0.00009
   5  10   0.00002
   6   6   0.20229
   6   7   0.00002
   6   8   0.00009
   6   9   0.01710
   6  10   0.01724
   7   7   0.21284
   7   8   0.01731
   7   9   0.00054
   7  10   0.00214
   8   8   0.20344
   8   9   0.00581
   8  10   0.00054
   9   9   0.20344
   9  10   0.01731
  10  10   0.21284
            I   J         C6ij          C8ij           C10ij         BTT        
     EDISPTT/(kcal/mol)
 VDWsCBR    1   2       13.97214      298.04746     5756.32554        0.00000        0.00000
 VDWsCBR    1   3       13.97214      298.04731     5756.32249        0.00000        0.00000
 VDWsCBR    1   4        1.05807       17.21649      289.29915        0.00000        0.00000
 VDWsCBR    1   5        0.78381       11.93000      185.64370        0.00000       -0.00000
 VDWsCBR    1   6        0.78380       11.92995      185.64289        0.00000        0.00000
 VDWsCBR    1   7        0.90420       13.93956      218.18862        0.00000       -0.00000
 VDWsCBR    1   8        0.87944       13.30166      206.93096        0.00000       -0.00000
 VDWsCBR    1   9        0.88650       13.37496      207.17379        0.00000        0.00000
 VDWsCBR    1  10        0.89767       13.86950      217.85008        0.00000        0.00000
 VDWsCBR    2   3       15.64284      351.81078     7110.56051        0.00048        0.00000
 VDWsCBR    2   4        1.16634       20.32949      355.78841        0.00000        0.00000
 VDWsCBR    2   5        0.86114       14.10477      229.23697        0.00000        0.00000
 VDWsCBR    2   6        0.86113       14.10471      229.23598        0.00002        0.00000
 VDWsCBR    2   7        0.99416       16.47845      269.50255        0.00000        0.00000
 VDWsCBR    2   8        0.96673       15.74210      255.64895        0.00000        0.00000
 VDWsCBR    2   9        0.97464       15.83412      256.10222        0.00000        0.00000
 VDWsCBR    2  10        0.98684       16.39066      268.94893        0.00001        0.00000
 VDWsCBR    3   4        1.16633       20.32948      355.78823        0.00000        0.00000
 VDWsCBR    3   5        0.86114       14.10476      229.23685        0.00002       -0.00000
 VDWsCBR    3   6        0.86113       14.10471      229.23585        0.00000        0.00000
 VDWsCBR    3   7        0.99416       16.47844      269.50241        0.00001        0.00000
 VDWsCBR    3   8        0.96673       15.74209      255.64881        0.00000       -0.00000
 VDWsCBR    3   9        0.97464       15.83411      256.10208        0.00000        0.00000
 VDWsCBR    3  10        0.98684       16.39065      268.94878        0.00000        0.00000
 VDWsCBR    4   5        0.08443        0.95567       14.72549        0.00049        0.00000
 VDWsCBR    4   6        0.08443        0.95566       14.72542        0.00049       -0.00000
 VDWsCBR    4   7        0.09625        1.10835       17.07927        0.00294       -0.00000
 VDWsCBR    4   8        0.09393        1.05426       16.30256        0.00647       -0.00000
 VDWsCBR    4   9        0.09446        1.05663       16.26910        0.00642       -0.00000
 VDWsCBR    4  10        0.09578        1.10615       17.10335        0.00296       -0.00000
 VDWsCBR    5   6        0.06680        0.68593        9.85701        0.04148       -0.00000
 VDWsCBR    5   7        0.07587        0.79394       11.39626        0.00000        0.00000
 VDWsCBR    5   8        0.07412        0.75402       10.88763        0.00000        0.00000
 VDWsCBR    5   9        0.07448        0.75489       10.84750        0.01993       -0.00000
 VDWsCBR    5  10        0.07555        0.79318       11.42865        0.03395       -0.00000
 VDWsCBR    6   7        0.07587        0.79394       11.39620        0.03374       -0.00000
 VDWsCBR    6   8        0.07412        0.75402       10.88758        0.02007       -0.00000
 VDWsCBR    6   9        0.07448        0.75488       10.84744        0.00000       -0.00000
 VDWsCBR    6  10        0.07555        0.79317       11.42860        0.00000        0.00000
 VDWsCBR    7   8        0.08424        0.87347       12.59400        0.00000       -0.00000
 VDWsCBR    7   9        0.08467        0.87469       12.55056        0.00968       -0.00000
 VDWsCBR    7  10        0.08587        0.91836       13.22441        0.00478       -0.00000
 VDWsCBR    8   9        0.08269        0.83021       11.99001        0.00047       -0.00000
 VDWsCBR    8  10        0.08388        0.87254       12.62812        0.00983       -0.00000
 VDWsCBR    9  10        0.08430        0.87374       12.58468        0.00000        0.00000
 Final Energy      -0.0000000 Hartree    -0.0000 kcal/mol
 STEP CPU TIME =     0.13 TOTAL CPU TIME =       16.8 (    0.3 MIN)
 TOTAL WALL CLOCK TIME=       17.4 SECONDS, CPU UTILIZATION IS  96.60%

                    *****************************
                    END OF dDsC DISPERSION ENERGY
                    *****************************

 FINAL ENERGY INCLUDING dDsC DISPERSION:  -118.411617799563     

     ---------------------------------------------------------------------
     PROPERTIES FOR THE WB97X    DFT FUNCTIONAL (ROHF TYPE) DENSITY MATRIX
     ---------------------------------------------------------------------

          -----------------
          ENERGY COMPONENTS
          -----------------

         WAVEFUNCTION NORMALIZATION =       1.0000000000

                ONE ELECTRON ENERGY =    -306.9519218151
                TWO ELECTRON ENERGY =     113.0369139530
           NUCLEAR REPULSION ENERGY =      75.5033900625
                                      ------------------
                       TOTAL ENERGY =    -118.4116177996

 ELECTRON-ELECTRON POTENTIAL ENERGY =     113.0369139530
  NUCLEUS-ELECTRON POTENTIAL ENERGY =    -424.6645549746
   NUCLEUS-NUCLEUS POTENTIAL ENERGY =      75.5033900625
                                      ------------------
             TOTAL POTENTIAL ENERGY =    -236.1242509591
               TOTAL KINETIC ENERGY =     117.7126331596
                 VIRIAL RATIO (V/T) =       2.0059380597

          ---------------------------------------
          MULLIKEN AND LOWDIN POPULATION ANALYSES
          ---------------------------------------

     ATOMIC MULLIKEN POPULATION IN EACH MOLECULAR ORBITAL

                      1          2          3          4          5

                  2.000000   2.000000   2.000000   2.000000   2.000000

    1             1.981749   0.001864   0.015980   0.548142   0.145602
    2             0.008626   0.987280   1.000593   0.565989   0.672804
    3             0.008630   1.007571   0.980298   0.566007   0.672796
    4             0.000802  -0.000000   0.000000   0.031130  -0.000000
    5             0.000019   0.000451   0.000594   0.044061   0.098281
    6             0.000019   0.000461   0.000584   0.044060   0.098281
    7             0.000052   0.000590   0.000484   0.047924   0.078922
    8             0.000025   0.000586   0.000503   0.052380   0.077197
    9             0.000025   0.000597   0.000492   0.052382   0.077194
   10             0.000052   0.000601   0.000473   0.047926   0.078922

                      6          7          8          9         10

                  2.000000   2.000000   2.000000   2.000000   2.000000

    1             0.784700   0.384784   0.119599   0.287866   0.000088
    2             0.290114   0.483290   0.528625   0.535568   0.558221
    3             0.290114   0.483296   0.528638   0.535566   0.558211
    4             0.316368   0.112438   0.001259   0.000000  -0.000000
    5             0.031075   0.221548   0.040864   0.093310   0.017780
    6             0.031076   0.221555   0.040867   0.093307   0.017780
    7             0.043765   0.005766   0.280097   0.056420   0.275955
    8             0.084510   0.040778   0.089973   0.170774   0.148009
    9             0.084512   0.040779   0.089973   0.170774   0.148009
   10             0.043766   0.005766   0.280105   0.056416   0.275948

                     11         12         13

                  2.000000   2.000000   1.000000

    1             0.441266   0.491674   0.898763
    2             0.536066   0.318966   0.001025
    3             0.536048   0.318964   0.001025
    4             0.000000   0.398137   0.001066
    5             0.232186   0.057765   0.003369
    6             0.232180   0.057764   0.003369
    7             0.002946   0.016711   0.034789
    8             0.008181   0.161653   0.010902
    9             0.008182   0.161655   0.010902
   10             0.002945   0.016712   0.034790

     ATOMIC SPIN POPULATION (ALPHA MINUS BETA)
       ATOM         MULL.POP.                    LOW.POP.
    1 C             0.898763                     0.870750
    2 C             0.001025                     0.005041
    3 C             0.001025                     0.005041
    4 H             0.001066                     0.001279
    5 H             0.003369                     0.004404
    6 H             0.003369                     0.004404
    7 H             0.034789                     0.041117
    8 H             0.010902                     0.013423
    9 H             0.010902                     0.013423
   10 H             0.034790                     0.041118

               ----- POPULATIONS IN EACH AO -----
                             MULLIKEN      LOWDIN
              1  C  1  S      1.99671     1.98803
              2  C  1  S      0.66808     0.55476
              3  C  1  X      0.58742     0.57238
              4  C  1  Y      0.71268     0.64685
              5  C  1  Z      0.70206     0.65003
              6  C  1  S      0.56733     0.44092
              7  C  1  X      0.42142     0.44604
              8  C  1  Y      0.27175     0.44238
              9  C  1  Z      0.17463     0.38964
             10  C  2  S      1.99689     1.98805
             11  C  2  S      0.65729     0.54782
             12  C  2  X      0.71122     0.63716
             13  C  2  Y      0.71680     0.64844
             14  C  2  Z      0.71553     0.65621
             15  C  2  S      0.66434     0.44018
             16  C  2  X      0.37378     0.49744
             17  C  2  Y      0.34817     0.48126
             18  C  2  Z      0.30315     0.44683
             19  C  3  S      1.99689     1.98805
             20  C  3  S      0.65730     0.54782
             21  C  3  X      0.71122     0.63716
             22  C  3  Y      0.71680     0.64844
             23  C  3  Z      0.71553     0.65621
             24  C  3  S      0.66434     0.44018
             25  C  3  X      0.37378     0.49744
             26  C  3  Y      0.34816     0.48126
             27  C  3  Z      0.30314     0.44683
             28  H  4  S      0.53604     0.51338
             29  H  4  S      0.32516     0.37932
             30  H  5  S      0.53000     0.50940
             31  H  5  S      0.31131     0.36992
             32  H  6  S      0.53000     0.50940
             33  H  6  S      0.31131     0.36992
             34  H  7  S      0.52391     0.50550
             35  H  7  S      0.32051     0.37723
             36  H  8  S      0.52749     0.50837
             37  H  8  S      0.31798     0.37433
             38  H  9  S      0.52749     0.50837
             39  H  9  S      0.31798     0.37433
             40  H 10  S      0.52391     0.50550
             41  H 10  S      0.32051     0.37723

          ----- MULLIKEN ATOMIC OVERLAP POPULATIONS -----
          (OFF-DIAGONAL ELEMENTS NEED TO BE MULTIPLIED BY 2)

             1           2           3           4           5

    1    5.2693897
    2    0.3465904   5.1089679
    3    0.3466236  -0.0612181   5.1089305
    4    0.3899819  -0.0428223  -0.0428240   0.5559330
    5   -0.0309682   0.3804427   0.0039289  -0.0037834   0.5486505
    6   -0.0309708   0.0039297   0.3804468  -0.0037837  -0.0001315
    7   -0.0501877   0.3736232  -0.0003671   0.0004680  -0.0310344
    8   -0.0440971   0.3821440  -0.0041232   0.0037808  -0.0257590
    9   -0.0440951  -0.0041240   0.3821400   0.0037809   0.0000682
   10   -0.0501892  -0.0003666   0.3736260   0.0004681  -0.0001114

             6           7           8           9          10

    6    0.5486498
    7   -0.0001114   0.5857856
    8    0.0000682  -0.0359786   0.5650086
    9   -0.0257597  -0.0005792   0.0050080   0.5650154
   10   -0.0310355   0.0028014  -0.0005793  -0.0359787   0.5857855

          TOTAL MULLIKEN AND LOWDIN ATOMIC POPULATIONS
       ATOM         MULL.POP.    CHARGE          LOW.POP.     CHARGE
    1 C             6.102078   -0.102078         6.131022   -0.131022
    2 C             6.487167   -0.487167         6.343394   -0.343394
    3 C             6.487163   -0.487163         6.343393   -0.343393
    4 H             0.861199    0.138801         0.892702    0.107298
    5 H             0.841303    0.158697         0.879315    0.120685
    6 H             0.841302    0.158698         0.879314    0.120686
    7 H             0.844420    0.155580         0.882725    0.117275
    8 H             0.845472    0.154528         0.882705    0.117295
    9 H             0.845476    0.154524         0.882706    0.117294
   10 H             0.844420    0.155580         0.882725    0.117275

          -------------------------------
          BOND ORDER AND VALENCE ANALYSIS     BOND ORDER THRESHOLD=0.050
          -------------------------------

                   BOND                       BOND                       BOND
  ATOM PAIR DIST  ORDER      ATOM PAIR DIST  ORDER      ATOM PAIR DIST  ORDER
    1   2  1.490  1.006        1   3  1.490  1.006        1   4  1.085  0.954
    2   5  1.093  0.956        2   7  1.101  0.934        2   8  1.095  0.950
    3   6  1.093  0.956        3   9  1.095  0.950        3  10  1.101  0.934

                       TOTAL       BONDED        FREE
      ATOM            VALENCE     VALENCE     VALENCE
    1 C                 3.771       2.963       0.808
    2 C                 3.825       3.825       0.000
    3 C                 3.825       3.825       0.000
    4 H                 0.946       0.946       0.000
    5 H                 0.937       0.937       0.000
    6 H                 0.937       0.937       0.000
    7 H                 0.930       0.929       0.001
    8 H                 0.937       0.937       0.000
    9 H                 0.937       0.937       0.000
   10 H                 0.930       0.929       0.001

          -----------------------------------------
          ATOMIC SPIN DENSITY AT THE NUCLEUS (A.U.)
          -----------------------------------------
                            SPIN DENS    ALPHA DENS     BETA DENS
    1  C            6.0     0.0364260      59.06041      59.02399
    2  C            6.0     0.0022135      59.03095      59.02874
    3  C            6.0     0.0022136      59.03095      59.02873
    4  H            1.0     0.0009732       0.21367       0.21269
    5  H            1.0     0.0024455       0.21255       0.21010
    6  H            1.0     0.0024456       0.21255       0.21010
    7  H            1.0     0.0189794       0.21808       0.19910
    8  H            1.0     0.0064643       0.21352       0.20706
    9  H            1.0     0.0064643       0.21352       0.20706
   10  H            1.0     0.0189795       0.21808       0.19910

          ---------------------
          ELECTROSTATIC MOMENTS
          ---------------------

 POINT   1           X           Y           Z (BOHR)    CHARGE
                 0.011149    0.037721    0.000000        0.00 (A.U.)
         DX          DY          DZ         /D/  (DEBYE)
    -0.269296   -0.174061   -0.000024    0.320651
 ...... END OF PROPERTY EVALUATION ......
 STEP CPU TIME =     0.01 TOTAL CPU TIME =       16.8 (    0.3 MIN)
 TOTAL WALL CLOCK TIME=       17.4 SECONDS, CPU UTILIZATION IS  96.61%
 Deallocating dDsC arrays
                580000  WORDS OF DYNAMIC MEMORY USED
 EXECUTION OF GAMESS TERMINATED NORMALLY Wed Sep 30 13:00:38 2015
 DDI: 263640 bytes (0.3 MB / 0 MWords) used by master data server.

 ----------------------------------------
 CPU timing information for all processes
 ========================================
 0: 10.62 + 6.732 = 16.795
 ----------------------------------------
 ddikick.x: exited gracefully.
unset echo
----- accounting info -----
Files used on the master node lcmd44.cluster were:
-rw-r--r-- 1 petragli lcmd   32517 Sep 30 13:00 /scratch/petragli/10170.slurm/G2-148.146.dat
-rw-r--r-- 1 petragli lcmd     751 Sep 30 13:00 /scratch/petragli/10170.slurm/G2-148.146.F05
-rw-r--r-- 1 petragli lcmd 2094080 Sep 30 13:00 /scratch/petragli/10170.slurm/G2-148.146.F10
-rw-r--r-- 1 petragli lcmd     751 Sep 30 13:00 /scratch/petragli/10170.slurm/G2-148.146.inp
ls: No match.
ls: No match.
ls: No match.
Wed Sep 30 13:00:41 CEST 2015
0.105u 0.016s 0:20.59 0.5%	0+0k 8+176io 0pf+0w
